ITEM: TIMESTEP    
95000     
ITEM: NUMBER OF ATOMS  
77888     
ITEM: BOX BOUNDS pp pp pp
17.607 132.393    
18.0782 131.922    
23.1432 126.857    
ITEM: ATOMS x y z id type
19.6105 20.1868 24.1724 72779 2
21.7585 21.1981 25.9834 977 2
21.027 18.2405 25.3582 1839 2
24.0035 19.3529 25.3264 23170 1
24.1732 21.7492 26.2251 1848 1
25.7419 19.8513 27.1726 22628 1
24.598 21.5571 23.6935 926 1
26.3156 20.2296 24.9882 72824 1
29.5696 20.9509 26.0581 20062 2
30.7701 19.9794 23.8398 2719 1
67.2508 47.5084 23.3983 19434 1
62.5865 18.1088 58.6488 29011 2
27.8582 18.4431 26.6369 1845 2
32.1952 20.3452 25.5882 43709 1
34.8865 20.3969 25.266 1851 2
33.4917 19.1268 23.3995 24988 2
31.7587 21.9542 27.3663 25026 1
37.5759 21.0832 23.5629 22537 2
37.2686 21.7607 26.622 1899 2
39.4335 18.9691 23.5975 1904 1
37.4959 18.5187 25.4632 22536 2
40.0598 22.7142 23.886 2790 1
39.9964 20.4853 25.5852 1854 2
42.8653 19.1812 26.1736 23128 2
42.3996 18.4304 23.3881 23153 2
42.5733 22.1499 24.9836 40934 2
66.3719 74.9109 45.8997 26222 2
41.815 22.6612 27.4877 3665 1
45.1259 20.3273 24.5085 1099 2
47.8835 20.597 24.6049 40834 2
46.0982 19.7788 27.3473 22576 2
48.0958 21.7689 27.095 1908 1
50.7239 18.809 24.2914 38521 2
50.4236 21.8027 23.8954 40893 1
49.8903 19.8559 27.026 22529 2
52.4837 19.448 26.5033 22574 1
51.1181 22.1752 26.5918 1110 2
52.9985 20.9883 24.2584 38365 2
55.9324 18.6591 24.1804 21944 1
54.7395 19.8699 25.9797 12513 1
56.9785 20.1454 25.966 13500 1
55.7402 21.4979 23.412 39988 2
60.7342 21.9295 24.1483 31298 2
59.7058 19.4737 26.1071 19184 2
59.729 22.0323 27.288 31285 2
60.9482 19.1771 23.6438 31004 1
58.284 19.9247 23.6315 38509 2
65.3172 18.3978 25.9346 30999 2
64.7619 21.3684 25.6799 21892 2
62.5107 20.218 25.0469 31021 1
65.3921 19.2456 23.4709 30371 1
17.9956 29.1824 23.1855 63688 1
62.7266 18.2206 26.3398 31001 1
67.7046 20.0856 24.4913 31023 2
69.4723 21.6115 26.8764 19245 2
67.0523 20.6909 27.2574 20998 1
70.4571 18.2837 27.2302 38366 1
71.2538 20.1793 25.4245 30996 2
73.8824 21.7737 26.4752 12413 2
73.4154 18.3903 26.5206 21403 2
20.9985 23.9927 25.927 25062 1
19.0881 25.5321 25.2674 970 1
18.459 22.6218 25.7233 1928 2
20.6688 26.2298 27.4985 1885 2
21.7113 26.1924 24.6723 52493 1
20.644 23.1668 23.5648 19183 2
23.3145 25.7277 26.6183 1888 1
23.6843 23.7939 24.7333 25024 2
25.5462 25.5626 25.8353 1945 1
25.0774 23.759 27.4109 1884 1
26.88 22.614 25.8477 1846 2
29.3172 23.3807 25.3438 1895 1
27.6935 25.0671 24.193 1943 2
30.4882 25.8921 25.5399 40920 2
32.3027 24.6518 27.2234 25060 1
31.9337 23.0035 24.9273 989 2
33.6374 25.771 25.1647 1035 2
34.3741 23.1084 27.2391 25027 2
35.1867 23.1086 24.2736 40928 2
36.7079 25.1528 25.789 2729 2
39.4379 26.0768 24.9479 2836 1
39.343 23.8334 26.25 3770 2
28.8904 54.7258 23.156 40191 2
41.3679 24.6196 24.4363 1956 1
41.9943 24.8471 26.7832 2782 1
43.5995 24.7323 24.8971 41801 1
45.9103 22.9991 25.7854 43705 2
46.255 25.7704 24.2701 40939 2
18.0513 72.1606 24.6524 63105 1
47.2537 25.1762 26.9039 1153 1
17.9789 56.4847 27.3358 50587 1
48.9257 23.9705 25.1672 40989 2
50.7084 26.5636 25.7447 2020 2
51.9533 23.9455 24.1825 19180 2
18.8369 74.439 68.4751 11661 2
54.6581 22.6786 26.0865 23176 2
53.4776 25.903 25.5901 23642 1
55.3613 24.8913 27.2315 40030 1
55.1143 24.5064 24.1587 40025 2
57.6217 25.8124 25.7781 18330 2
57.9016 22.6905 25.2505 38629 2
59.8031 24.5377 26.6992 20148 1
60.1878 24.6575 23.9622 199 2
73.4937 74.7817 25.8633 21796 1
70.932 74.9359 31.0516 11266 2
62.4081 23.4453 25.9694 19285 2
64.9584 25.3538 26.8879 20106 2
65.029 23.759 24.8085 18327 1
62.7928 26.2676 24.7973 19229 2
65.914 26.9683 24.9579 18337 1
69.6296 22.4754 23.744 31019 2
67.2782 22.5987 25.1867 31293 1
69.8897 24.7386 25.9463 1065 2
67.7168 26.3151 26.2358 19241 1
67.6465 24.8178 23.8497 31294 2
67.654 23.8456 27.5078 31002 2
71.7298 22.8942 25.1855 12457 1
72.0489 26.3268 25.3519 30290 1
73.3561 24.3919 25.9024 43162 1
73.5944 25.3498 23.5797 44079 1
23.3222 18.251 54.3675 8256 2
72.0299 71.1781 70.8152 14222 1
19.63 28.5189 25.4265 1933 2
21.7645 30.8838 25.8168 1071 2
20.2795 30.1796 23.4992 72807 1
24.5707 26.5102 23.5367 25061 2
22.5605 28.1307 26.2381 63545 1
24.5576 29.5457 24.9723 1023 2
26.5532 28.3672 23.3977 986 1
25.1419 27.7424 27.3974 1025 2
22.4057 28.5238 23.3851 975 2
26.4546 30.3678 26.6237 40916 1
29.2731 27.4264 23.3882 41796 1
27.6769 27.8196 25.8359 39954 2
28.5098 29.8075 24.4897 19240 1
30.4465 28.6601 25.441 983 1
66.598 74.9664 34.9517 23587 1
32.6453 27.6988 27.2692 41845 2
32.7717 29.5767 24.6435 41885 2
33.8189 30.8618 27.2016 1033 1
48.8747 18.1127 47.9945 10405 2
73.6174 33.6194 63.8782 29450 1
35.5291 28.2486 26.1201 40926 2
37.652 27.1659 23.8823 2779 1
38.0627 30.1461 26.1482 2010 1
37.5067 29.7535 23.8478 2000 1
38.4741 27.9077 26.0192 1083 1
42.3519 27.2102 25.4985 41842 2
40.116 28.8598 23.8184 1907 2
43.3496 30.1473 25.3976 43703 2
40.6767 29.7714 26.5342 40975 2
74.7742 46.5614 26.0334 20313 2
44.8882 27.886 24.6251 40985 1
46.7044 30.0003 24.4689 41032 2
48.1776 27.6433 25.7317 40935 2
63.2413 18.167 23.8512 31316 1
49.2003 30.1815 25.4802 1954 1
50.809 28.7974 24.3008 42717 1
51.0952 29.2247 26.8331 2027 1
51.9111 31.1894 24.8831 1163 2
61.5205 18.1367 51.0025 7564 1
48.8192 57.3286 74.946 15028 2
53.0195 28.615 25.3581 40996 1
55.2487 27.5322 26.576 20144 2
55.2653 30.591 24.7597 248 2
55.4168 27.411 23.6562 19382 2
53.8041 30.2024 27.4131 1164 2
24.945 74.925 61.2571 9825 1
17.5951 41.1062 33.0349 63086 2
60.288 27.1895 25.1668 246 1
57.9942 28.8126 24.9678 19231 2
61.1283 29.5596 24.2773 2792 2
59.9503 30.6013 27.1177 200 2
61.8566 28.5842 26.5927 19243 1
64.2526 29.2024 24.7945 19242 2
63.1459 30.9609 26.9039 20214 2
68.5113 27.7841 23.809 30998 2
69.9646 27.6973 26.8248 19186 2
67.2556 29.2296 26.2861 12515 2
69.7736 29.9299 25.0085 43818 1
66.5697 30.8378 23.7318 30833 2
74.5174 27.6573 24.9307 30993 2
71.4949 30.1666 26.6543 19294 1
73.2327 30.6176 25.2427 43804 1
71.6546 28.544 23.8681 18339 2
72.77 28.131 26.7937 18336 1
18.5822 31.6056 25.2653 63536 2
18.8882 34.7069 24.807 1017 2
20.908 35.1856 26.9457 63543 1
20.6924 32.3993 23.3139 74584 1
18.3668 34.8331 27.3293 2808 1
21.7854 33.7506 25.1517 1060 2
19.6302 32.4236 27.7493 1934 2
24.6527 32.5627 26.3832 63681 2
24.3234 34.6555 24.6328 43702 1
23.2841 35.0496 26.8229 1069 1
55.0256 72.5204 74.7316 26542 1
26.6355 34.0837 25.2416 1070 1
28.1972 32.2009 26.2709 40965 1
28.9913 34.2316 24.0855 1031 2
26.579 31.6008 23.9589 40917 2
30.0558 33.8692 26.8185 2916 1
30.7574 31.5165 25.5294 1940 2
27.7871 34.6376 27.2925 1989 1
34.4858 33.968 26.4747 24974 2
33.2189 32.0963 24.9544 984 1
31.8894 34.5088 24.9172 1029 2
35.7824 31.3344 25.0737 41893 2
38.8613 32.2225 24.7386 1199 2
36.5296 34.8057 24.5951 41937 2
39.2357 34.8375 26.4473 20283 2
37.171 33.017 26.8486 1080 1
39.3317 35.3064 23.8007 19202 1
41.2819 31.4922 24.3018 42701 1
41.2579 34.1298 24.6847 2002 1
43.4336 32.7772 23.6404 41848 2
41.7508 32.7498 26.8457 2004 2
41.8735 35.5931 27.2945 2944 1
43.6654 35.0828 25.702 2990 2
47.3667 31.5178 26.583 2942 1
46.9305 34.8341 25.5493 2067 2
45.0196 32.5936 26.0764 43700 2
46.6133 32.855 23.3553 197 2
44.5127 61.9959 23.3447 483 1
49.2111 32.8872 25.6452 237 2
52.0465 34.0045 26.4325 2022 2
51.5247 33.7659 23.7906 291 1
50.6866 31.7655 27.6228 42715 1
48.8486 35.239 27.3143 236 1
56.5742 35.1847 25.0472 19334 1
54.5252 33.55 24.5578 20251 2
54.7406 32.7371 26.9537 249 1
57.1967 32.4548 26.1245 2077 2
54.3777 35.4385 26.4731 1208 1
58.9171 31.1613 24.577 1109 1
58.7997 33.9112 24.1916 241 2
61.5843 32.6538 24.8138 1112 2
59.7256 33.5909 26.9622 19233 1
39.0041 74.9544 28.6731 4522 1
61.8863 34.924 25.9583 43165 1
64.2939 32.3781 24.4983 18380 1
63.8928 33.7741 26.4503 19341 1
64.1024 35.5044 24.0903 19232 2
66.3145 33.7325 24.473 19288 1
17.8258 53.3594 23.1537 53599 1
66.0556 35.2615 26.2588 19339 1
66.1105 32.1679 26.5658 19289 2
68.5005 31.7541 25.1211 20162 1
68.3203 34.1146 25.9744 19293 1
73.9641 32.3034 23.5351 19297 1
71.186 32.5161 25.3248 19246 2
73.3501 34.8081 24.5689 43988 2
74.4479 32.8718 26.3108 19301 2
71.794 34.2903 27.4996 19295 2
20.03 37.096 25.2941 63542 1
19.6569 39.7693 25.2394 63537 2
56.003 53.8004 23.4356 19473 1
66.4222 18.1585 34.3778 12510 2
22.1287 38.4595 26.9107 1979 2
22.5874 36.8717 24.8012 1988 2
24.8368 38.9037 25.1755 2036 2
25.7094 36.2999 26.5948 1075 2
24.9057 36.9566 23.3356 2034 1
29.5088 36.379 26.278 1074 2
27.4866 36.8842 24.1098 41015 2
30.1372 39.5183 25.0646 1028 2
27.4867 39.003 26.3847 1122 2
27.4209 39.8936 23.2834 41016 2
34.7308 37.0142 26.277 2829 2
31.9929 37.5326 25.554 1079 1
33.8549 36.4368 24.0499 41936 1
32.97 39.0819 23.487 1135 2
33.2987 39.2616 27.6346 20156 2
38.1733 37.5041 25.2187 41068 2
40.8373 36.7314 25.0883 40988 1
42.9544 38.4177 24.0046 1204 2
42.6588 37.7999 26.8024 2066 1
40.3749 39.5915 25.6263 41984 2
44.9836 39.0654 26.2135 41031 1
48.0141 37.6204 25.9442 330 2
46.4658 39.449 23.9765 286 2
45.1656 37.0307 24.4733 1159 1
47.1671 36.6299 23.5064 1197 1
49.898 35.4752 25.2664 41035 1
52.5003 36.383 24.4129 1155 2
51.0459 37.1762 26.888 1162 2
49.9728 37.7831 23.5936 40108 2
50.2315 39.5284 25.4488 290 1
53.1669 39.3773 25.5688 18473 2
55.3502 37.474 24.5583 20297 2
55.4475 39.1267 26.8192 388 1
56.8247 36.9063 26.8731 19276 1
74.9275 69.3739 55.1605 27122 2
60.6354 38.7966 23.6491 18381 2
59.3901 36.0422 26.0372 2121 2
58.199 39.2746 25.7055 18430 2
60.4938 38.5842 26.6221 18376 1
58.2609 37.0361 23.4293 288 2
61.8543 37.0649 25.1217 1119 1
62.9772 39.2012 26.3237 19286 2
63.9572 36.4116 26.513 20213 1
63.5762 38.036 23.7073 19236 1
65.9985 38.0101 25.2128 19281 2
65.0224 39.7823 23.4557 44031 1
70.2162 35.8086 24.7026 19349 2
67.4431 35.9189 24.3753 20215 1
68.5613 38.0557 24.7965 19290 1
68.0071 39.4435 26.7509 163 1
68.7603 36.7981 27.2438 19291 2
70.6741 38.3816 23.4455 18383 1
74.8261 39.4756 24.2335 18489 1
70.9242 38.8522 26.227 18437 2
72.3585 36.566 26.37 25899 1
73.9761 38.5192 26.5994 19352 2
72.9611 37.5701 24.1374 18386 1
19.3005 42.1446 26.4847 63648 1
19.9589 42.4793 24.29 63678 1
21.7126 41.4822 26.8914 63529 1
22.4291 40.1935 24.8264 2045 1
23.9042 40.8376 26.7712 2039 1
22.8856 42.7668 24.847 21093 1
25.185 41.7652 24.2571 41066 2
24.4329 43.3419 27.1609 63091 2
26.8057 41.3257 26.6216 2037 2
29.9989 41.3791 27.325 25055 2
28.7197 42.725 24.7847 43701 2
26.3386 43.8652 25.5021 2969 1
28.6262 44.3079 27.2043 2971 2
31.5927 43.6005 25.9389 2090 2
32.4404 40.8297 25.5745 41941 1
30.9825 41.8639 23.2004 41883 2
34.1314 42.8359 25.3016 2051 2
35.3808 39.8219 25.1672 1998 2
38.2126 40.0195 23.4159 41072 2
37.9527 41.3385 25.852 1202 1
36.4194 41.9965 23.7425 2056 1
37.1526 43.8485 25.7074 41939 2
39.7498 42.7564 24.1392 3133 2
42.044 41.313 24.3577 1200 1
40.692 42.2684 26.9058 1198 2
42.8299 40.2729 26.6013 25047 1
43.4646 43.2789 25.8916 1251 2
67.5001 18.1359 37.2892 11596 2
41.6905 44.7501 23.4451 41075 1
44.6016 41.1063 24.8673 25049 1
47.9866 40.8149 26.0404 2119 2
46.4382 43.3914 24.6907 1254 2
47.5499 44.218 27.331 1253 2
49.1592 41.5356 23.3663 41038 2
49.6196 42.748 26.4733 2113 1
51.7829 42.123 25.1955 289 2
54.337 43.8156 24.2712 1307 1
55.7363 41.3777 24.984 18427 2
54.9916 43.4703 26.4024 39218 1
57.0134 44.1444 23.5012 1350 2
53.5171 41.8043 27.3607 20299 1
58.535 41.4839 23.3866 19282 2
57.7828 42.9942 26.2858 19337 2
60.5491 41.3569 25.8172 20206 2
59.763 43.9313 24.8196 1255 1
61.7219 43.892 26.5559 20298 2
62.0548 43.0737 24.0622 18479 1
62.5739 40.578 24.053 18379 1
64.3793 41.7764 26.0691 19338 2
66.4679 43.5908 24.1068 19384 1
64.0188 44.1829 24.7257 18435 1
66.6337 41.1972 24.9899 18433 2
69.3717 40.8637 24.9096 18439 2
68.306 43.2221 25.9589 19396 1
69.889 41.8504 27.456 19340 1
70.531 43.4482 25.6544 19389 1
72.4705 40.0985 24.2098 18443 1
71.7617 41.4932 25.9279 20353 1
74.3645 41.4858 25.9364 20361 2
72.06 42.9842 23.6038 19401 2
73.27 44.0739 25.6863 2141 1
21.3656 44.3038 26.4095 63528 2
18.5528 44.8109 25.2455 63282 2
18.9273 47.2261 26.5926 63280 1
21.4444 47.2262 25.0412 53468 2
21.3057 44.6443 23.4664 48570 2
24.2157 45.4209 24.7029 63650 2
23.8981 47.8457 26.1158 2088 1
25.2781 48.2354 23.7163 41060 2
26.1873 45.7677 27.5242 2044 2
27.47 46.2663 24.6965 41064 2
29.9505 45.2966 24.7728 2049 1
29.9662 48.3305 25.4056 41946 2
28.723 46.9395 27.018 1131 1
30.8395 46.025 26.9071 2046 1
32.8465 46.1128 24.8787 2157 2
32.2809 48.0066 26.9204 2922 1
34.5803 48.3925 25.8713 2095 2
33.2361 45.8599 27.6134 2979 1
35.1483 45.5388 26.56 3952 1
39.0091 45.8742 24.3341 41124 2
36.3326 46.2941 24.7312 41990 1
37.7294 47.0128 26.7805 2159 2
39.2855 44.6604 27.3 2156 1
37.2789 48.5372 24.255 2155 1
41.1358 44.6011 25.6577 1249 1
41.5293 47.1698 24.3796 1293 2
40.4846 46.8443 26.8053 1292 1
43.2694 46.0243 25.9315 2162 1
44.5105 45.1141 24.0874 1257 1
44.5408 47.9979 24.5414 2169 2
45.85 45.915 25.908 381 1
46.1242 47.9108 26.9866 21219 1
48.0697 46.8001 25.3818 385 1
48.3262 48.7706 27.093 2214 1
49.575 44.5491 24.5933 340 2
51.8087 45.1335 23.3738 2120 1
51.9963 46.9416 24.8423 1345 1
52.3325 44.7695 26.4046 25040 2
52.1196 47.5347 27.3206 1302 1
49.8411 46.1571 27.3236 2208 2
49.7782 47.23 23.2709 1305 2
56.0117 45.8592 25.7682 1306 2
54.1422 46.2712 23.7313 1264 1
56.0842 48.3886 23.9525 19426 2
54.3462 48.4161 26.2234 19428 2
57.5536 48.4063 26.628 21280 2
59.1407 45.7429 26.5953 1303 2
58.8623 46.955 23.708 20346 2
61.7396 46.1009 24.4503 20338 2
63.6768 45.7959 26.6106 20304 1
64.7431 46.5293 24.1659 19386 2
62.843 48.5748 23.5766 1274 1
66.1279 44.7514 26.5309 21284 2
63.6711 48.7775 26.2563 18534 2
66.6421 47.66 25.9187 25875 1
68.5395 45.7557 24.998 21192 2
69.378 48.1766 26.886 19439 2
70.4327 48.2911 23.8427 18476 2
70.2629 74.9501 48.4875 25647 2
71.5517 46.2529 26.0609 19436 2
73.2418 45.8528 23.9149 18542 1
71.0558 45.4354 23.4668 19395 1
73.4912 48.6756 24.3928 19445 2
19.4512 49.5624 25.1359 63274 2
18.2261 52.1275 25.2881 54461 1
20.2349 51.8285 23.8128 63632 2
21.6133 49.7379 27.1703 48858 2
20.5401 52.9144 26.8659 63060 2
24.2448 50.2702 26.5727 63527 1
22.6242 49.7187 24.0965 48669 2
25.5448 51.3533 24.3469 2085 2
22.6638 51.8406 25.469 63486 1
26.1721 51.9446 27.4019 63483 2
27.8173 48.9581 23.739 41062 1
26.6338 48.8273 26.3175 63281 2
28.5248 50.884 25.7647 24951 2
29.983 52.6392 24.3774 2040 1
71.995 18.0931 45.1138 7635 2
34.9026 50.4858 23.7515 41077 2
32.3976 49.783 24.8313 41115 1
31.2277 50.8892 26.3741 40237 1
34.4755 51.0536 26.3288 41120 1
32.6318 52.6053 24.5915 2048 2
36.9186 52.2285 25.0194 378 2
36.8125 49.8544 26.3537 63642 1
39.3843 49.2084 25.6722 1294 2
38.4532 51.1262 27.273 1336 1
41.5741 52.7689 23.6113 431 2
40.2768 52.1589 25.9742 1339 2
42.385 50.0952 26.1095 2200 2
47.4376 49.279 24.3583 41079 2
44.3641 51.7797 23.8365 383 2
45.4156 50.1944 26.3039 1295 2
46.7139 52.3834 24.975 2240 1
48.1275 51.1736 26.364 394 1
46.035 53.0424 27.5007 1389 2
50.4061 49.1699 25.827 2213 2
49.3771 51.757 24.1998 3092 2
52.5684 50.7319 24.5766 25001 2
50.4209 51.973 27.4492 4065 2
55.6015 51.2685 24.8211 1268 2
53.3819 52.4555 26.9897 25885 2
60.601 48.6974 25.7707 2172 2
57.7738 51.4976 26.2508 1310 1
58.2854 49.8448 24.3213 19470 1
59.7269 51.6511 24.8973 3150 1
62.443 51.221 24.6373 19483 2
64.9006 51.1652 26.0438 20397 1
65.0736 52.1311 23.534 18526 1
65.6109 49.5678 23.8579 20344 2
68.2106 49.5026 25.0157 25042 1
67.5161 52.0038 24.9787 19482 2
70.4428 51.3932 24.5791 19488 2
69.51 50.8584 26.7797 1224 1
71.9005 49.5756 26.6549 2268 2
73.0715 51.6517 24.8285 19532 2
73.7589 51.6853 27.4891 20447 1
18.9681 54.8354 25.0588 63500 2
21.0056 57.1359 26.1114 48680 2
74.9602 33.8223 50.6495 29213 1
22.7586 74.6536 69.9821 12479 2
21.8812 54.4751 24.333 63481 2
24.3815 53.5294 25.4385 63235 1
23.8922 56.6027 24.8232 63634 2
22.6542 54.7459 26.8215 63046 1
25.3226 55.307 27.2388 63188 2
26.8022 56.9867 25.0638 63479 2
27.5568 53.8472 25.6556 2089 2
29.4826 56.3949 25.0847 3022 1
30.4269 54.3635 26.4003 40239 2
31.9796 55.3844 23.4522 42703 2
33.0459 55.1168 25.9026 41977 1
35.0655 54.8613 24.3277 41126 2
31.2544 57.3801 26.9759 2982 2
35.1798 53.7356 26.8805 41170 2
37.3716 55.0041 25.6177 477 1
35.8627 56.6406 27.3913 376 2
36.9776 57.3403 24.088 1338 2
39.1561 54.1624 24.3475 25067 1
39.2894 56.6471 26.4063 3191 2
43.1436 53.0117 26.4917 1388 2
43.4434 55.4899 24.2116 435 2
41.2565 54.8247 25.6296 19545 1
43.2508 56.3991 27.3071 2289 2
41.7819 57.2284 25.2246 481 1
40.7647 54.3503 27.7829 2201 1
45.6988 54.4191 24.97 1386 1
47.6722 56.3439 23.7707 1348 2
46.2467 55.8559 26.6411 1347 1
47.9012 53.8504 23.2797 438 1
48.4107 54.2324 26.0279 1297 2
49.9984 57.1778 25.6808 20463 2
51.3037 53.3488 25.3135 19565 1
52.3048 55.5349 25.2648 1399 1
50.6802 54.8423 27.1301 1394 1
74.8269 63.6101 54.8494 27915 1
55.2295 54.532 25.8357 19469 1
54.5183 56.5109 24.0128 20435 2
53.5491 53.5536 24.4158 1352 1
57.0874 55.9663 24.7607 19517 1
55.5587 56.4097 26.9521 19657 1
52.1478 74.7591 42.9232 25335 1
57.6808 53.5708 25.2421 1267 1
59.3965 53.5025 27.0079 19379 1
60.1296 54.4715 24.5077 20390 2
58.3306 56.0164 26.9627 25887 2
61.2409 56.6193 25.8639 25865 1
59.3231 57.0621 24.424 18630 1
62.27 53.758 26.3892 19476 2
65.294 53.7967 26.0112 19486 2
63.862 56.4866 25.4211 19570 2
66.155 54.8842 23.286 19581 2
63.0824 54.1196 23.5217 18633 2
67.7662 54.9865 25.5976 19585 1
70.2192 54.5186 26.0947 19524 2
69.3199 56.4409 23.8257 19586 2
69.0548 57.0642 27.022 19626 2
69.0835 53.8474 23.6505 19523 1
72.8525 53.797 26.4327 20402 1
73.6496 56.139 24.945 20444 2
71.1561 57.4016 25.7007 20488 1
74.6148 55.3772 27.3135 20446 1
71.9973 54.1511 23.5158 19489 2
18.2736 58.0877 25.0794 63187 2
19.3063 60.4737 23.392 53700 2
21.311 59.4911 24.682 63438 1
19.6313 60.0283 26.2865 63040 1
23.5128 57.2295 27.4068 63485 1
22.1621 59.8751 27.0333 63183 2
24.8075 59.3318 25.3101 63433 2
23.3037 60.9524 23.8655 63598 1
26.7807 60.7218 26.5011 63042 1
29.1288 59.2282 25.8785 63272 2
27.0924 59.6246 24.0667 63410 1
74.9087 58.0903 34.3218 21395 1
30.9174 61.0007 26.5016 3012 1
31.2248 58.0388 23.9218 25023 2
34.0563 57.5655 25.0845 428 2
32.605 59.5038 26.3791 24941 1
31.9138 60.8082 24.0706 1382 2
34.781 60.2952 24.8145 24999 2
37.7005 59.3827 26.4593 1385 2
37.4844 60.1184 23.8911 426 1
39.3154 61.9271 24.9957 24937 2
42.9958 59.4667 23.7381 479 2
40.0757 59.0216 24.1677 429 2
40.731 58.8346 26.8896 2333 1
41.8042 60.7668 25.7307 19607 1
43.5506 58.9369 26.4465 1387 1
45.1634 57.6447 24.8445 1390 2
47.5172 57.6734 26.1477 1393 1
45.7914 60.6498 25.3797 1445 2
48.353 59.5223 24.1158 1447 2
48.2953 59.5282 27.1708 2294 1
74.8193 22.8074 23.7967 39972 2
47.3809 62.1072 23.6933 1395 1
48.354 61.6818 25.7922 1444 1
51.8472 57.7452 24.0442 491 1
50.8646 60.2139 25.6643 19569 2
52.9969 57.956 26.5697 1398 2
56.142 58.7237 25.6929 448 2
53.6531 60.4214 26.072 24996 1
54.2322 59.5015 23.5618 20473 2
57.8284 60.9444 24.5064 19618 2
17.8037 55.9289 67.6858 12274 1
59.3763 58.8324 26.3777 444 2
61.0058 61.0417 25.3266 20476 1
74.858 58.2395 68.2398 28419 1
62.3256 58.9122 24.9261 19572 1
64.4912 59.1765 26.0145 19520 1
63.3366 61.5662 24.3985 19580 2
62.8519 60.9059 27.5594 19623 2
62.4788 58.2133 27.4819 20428 2
66.6941 57.5656 25.1588 1420 2
69.392 59.788 24.9759 20487 2
67.6959 59.54 26.7179 20483 1
66.4435 60.9909 24.6819 546 2
74.2657 61.0221 26.8206 20497 2
72.3847 59.7062 24.6598 20485 2
73.6058 58.0045 27.1481 20489 2
71.4385 61.5857 26.3287 21396 1
71.0266 61.4329 23.2346 19632 1
18.408 62.2614 26.0188 55544 2
21.3427 62.2119 25.3631 63425 2
21.0132 65.3112 24.6007 54635 2
18.2029 65.4401 25.5238 55588 1
19.3767 63.4225 23.8083 53783 1
24.4325 62.3721 26.157 54632 2
23.9623 64.2938 23.9282 63600 2
25.5518 65.6061 26.4937 63028 2
22.9765 64.5407 26.6879 48872 1
26.7126 64.0121 24.619 63474 1
28.5174 62.1792 24.971 63227 2
29.1091 64.9976 23.6112 5799 2
28.8135 65.0013 26.7655 63176 2
26.8888 63.191 27.2304 63043 1
31.2129 63.7093 25.0279 24954 2
33.6761 62.2311 26.9865 3025 2
33.8986 63.5037 24.1853 19499 2
32.8495 65.0237 26.8162 2284 1
36.458 61.8746 26.2695 20458 1
36.7562 62.6808 23.5886 2288 2
38.8786 65.1949 24.9568 2328 2
35.6981 64.5894 26.3083 3184 2
38.553 63.6258 27.5006 1384 2
42.097 62.1373 23.8978 25906 1
40.753 64.0452 23.4313 2286 1
41.5866 63.7072 26.2325 1439 2
40.9658 66.1824 27.4448 2331 1
43.6998 65.8343 26.0513 1442 2
44.1148 63.1615 25.3068 1391 1
46.7787 63.9717 26.1047 1443 2
45.5998 66.04 24.2191 525 1
46.0502 63.9211 23.5612 19616 1
48.6174 65.6627 24.3958 1446 2
52.7739 61.9604 24.1781 2342 1
50.0305 62.8575 23.9629 19660 2
49.5618 64.0336 26.4106 25036 1
51.7086 65.2662 24.6782 2381 2
52.4431 62.8631 26.627 19617 2
55.5057 61.8099 26.0416 25862 1
54.288 64.1765 24.8776 19665 1
53.6946 64.9872 27.4628 1490 1
57.0399 63.8984 24.5178 20521 2
56.0461 64.1625 26.8802 20518 1
55.0963 62.0357 23.506 18770 1
60.4168 65.3206 25.2117 19670 2
57.9973 65.4926 26.446 20522 1
59.3399 62.781 26.338 20525 2
60.5009 62.7739 23.3248 18729 2
61.956 63.2529 25.8929 25860 1
64.8205 63.311 25.4157 19625 1
62.9608 64.2202 23.7863 1455 1
64.9395 65.5609 24.0206 2354 1
63.3671 65.4804 26.0369 19624 1
66.2222 65.7073 26.764 21433 2
66.9465 63.9194 24.0325 602 1
67.134 62.9382 26.2269 20533 1
69.7735 63.3127 24.9127 20527 2
68.7742 64.6111 27.4634 25854 1
74.7602 35.825 33.2748 2976 1
70.8572 65.4232 23.5774 1461 1
73.0501 63.0165 24.7449 19679 2
71.7604 65.7952 26.0251 21693 2
74.8116 65.2847 25.71 22590 1
70.7992 63.7662 27.6579 19639 1
19.2399 67.5131 25.2138 54678 1
19.6516 70.1121 23.7703 54856 2
21.4776 68.1319 24.4322 63142 1
21.0124 67.2808 27.1011 63177 2
19.9654 70.5399 26.4714 54810 2
18.5078 67.1319 27.5322 50692 1
26.4711 66.72 23.6117 63411 2
23.3625 66.6946 25.14 63141 1
23.0551 69.3643 26.5264 54677 2
25.4529 68.23 25.9563 63140 1
25.7208 70.5551 25.564 63124 1
24.4264 69.1341 23.5731 48693 2
27.9845 67.9111 26.1242 63144 2
27.2974 69.5764 23.9109 55682 1
29.7737 70.3657 25.1935 63139 2
29.0819 67.6367 23.8892 1383 1
33.818 66.2053 24.8228 24853 1
31.1997 67.039 25.6818 63037 2
33.5864 68.5237 25.2214 48819 1
32.3709 69.6726 27.2302 4408 2
34.8553 70.7034 24.6064 21775 1
32.4977 70.9429 24.7724 4458 1
33.9474 67.1859 27.7015 5806 2
35.3057 69.7187 26.8362 3598 1
38.256 66.5627 27.1618 2332 1
36.3809 67.4674 25.6527 2373 2
37.5633 69.9723 24.5812 4204 2
38.9868 70.329 26.9967 2419 1
65.4134 18.1341 45.4312 8444 2
41.4258 66.161 24.7732 572 1
39.949 68.0767 25.6707 1482 2
42.5824 68.4129 25.8355 579 1
41.391 70.352 27.5255 1485 1
73.3062 74.5325 43.8144 24500 2
44.0317 70.1232 24.7218 530 1
45.6741 68.094 25.7355 578 2
48.1242 66.5687 27.411 19614 2
46.7463 70.6654 25.0815 3300 1
48.4933 68.6864 25.3939 1528 1
50.2368 67.3637 25.6214 2338 1
51.6277 69.0402 24.124 1488 2
52.7737 67.4843 26.0586 2427 1
50.9213 69.1947 27.3589 24995 2
48.8585 69.9656 23.394 1535 1
55.2845 66.6733 25.8183 2430 2
54.1982 69.7487 26.4357 1533 2
56.5593 69.2842 25.0062 2425 1
54.3817 68.4218 23.4305 19710 2
56.8156 68.4937 27.588 2439 2
60.6796 68.81 24.6214 19718 2
59.286 67.4383 26.8085 20569 1
58.7934 69.9818 26.4158 25855 1
57.9526 67.2427 24.4147 25882 2
61.9132 67.3903 26.4658 20571 1
62.4309 66.8101 23.6126 18779 2
64.4204 68.0655 25.5311 20529 2
63.0668 69.6966 27.0723 21735 1
63.1468 70.4711 24.8976 25856 1
66.5269 68.3723 23.5119 21739 2
68.6328 66.21 24.9692 18736 2
70.2311 68.2225 26.1366 25816 1
69.2705 69.7205 24.6092 18741 1
67.5441 68.7361 26.3348 22589 2
73.1479 68.5404 25.0015 2592 2
71.4258 70.3198 23.743 21785 1
70.7818 67.6784 23.7312 2396 1
72.0363 67.9796 27.5687 25853 1
73.9562 69.6136 27.6448 21748 1
75.0093 41.7543 68.6694 28567 1
19.1611 73.7681 26.835 54859 2
21.4068 73.1364 24.7681 63116 2
18.8079 74.5921 23.676 63363 2
22.2208 70.6474 24.2447 63128 1
23.7905 71.9982 25.8384 63010 1
24.5699 72.362 23.2588 63118 2
26.0918 72.8316 25.3443 48908 1
24.7794 73.7993 27.6197 4505 2
23.965 74.935 24.8934 63005 2
26.3049 74.6697 23.4514 3538 1
28.6819 73.0943 25.8518 4507 1
27.9971 72.3545 23.3383 63125 2
28.7653 74.9316 23.889 24854 1
30.9323 73.138 24.6839 3587 2
28.5305 74.9799 50.1852 25643 1
33.6781 72.6672 26.5547 3599 2
38.7755 72.7844 24.3037 22511 2
36.543 71.8258 26.1447 3597 1
39.385 72.8328 27.2341 4520 2
49.0635 18.2788 38.2611 20411 1
35.9535 74.2714 24.6468 3602 2
42.7677 72.7756 23.5209 577 2
41.0997 70.9019 25.0059 2374 2
42.6517 72.9612 26.876 1532 2
40.8465 74.0557 25.1321 19699 1
45.3783 74.5313 26.7613 21842 1
48.2929 74.3734 25.8214 1531 2
45.0611 72.6867 25.0566 1487 2
63.2337 22.932 23.2408 30803 1
49.4228 71.3872 25.6535 2426 2
52.3199 71.3202 25.0918 2431 1
51.2745 73.5466 26.0515 21736 1
52.8807 74.3549 23.7792 22631 2
74.8532 47.9665 57.2647 29723 2
54.7561 71.5793 23.8668 25821 2
55.439 74.2836 26.1186 21729 1
56.6504 71.6232 26.3699 21476 2
53.5652 72.9058 26.2443 21526 1
56.9544 73.3187 24.0479 2432 1
58.5756 71.2586 23.8904 19667 2
58.4561 74.458 26.0739 20618 2
60.9184 71.6225 25.8343 20619 2
60.5207 73.7844 23.8173 21788 2
61.2621 74.8142 26.8551 21776 2
65.6961 70.9281 25.4679 20824 2
63.4625 73.3858 25.0972 22588 2
68.8154 71.6881 26.3752 21737 2
66.4667 73.5516 24.3252 21781 2
69.1099 74.7526 25.8811 21787 2
66.4006 73.6998 27.4517 22638 2
69.7584 72.3497 23.6278 22688 2
67.4143 70.8435 23.4445 21740 1
74.3872 56.5833 61.0845 28417 1
71.6798 70.6447 26.4973 22642 2
71.2416 73.4167 26.1911 25817 1
73.0398 72.4637 24.3168 20834 2
73.8904 72.3535 27.3323 21791 2
17.826 19.1816 30.364 59349 2
19.2475 19.8884 27.6018 1881 2
21.0017 18.9345 30.3897 2716 2
21.8112 20.9602 28.9451 25064 1
19.5206 21.6171 30.6297 20051 2
25.8855 18.5451 29.4284 784 2
23.1338 18.9893 27.9798 20009 2
24.6867 21.6238 28.8815 24990 2
23.6566 20.3731 31.3206 3701 2
26.4333 20.8409 30.9097 2772 1
27.6987 21.278 28.3909 2717 2
28.5769 19.1636 30.2898 1847 2
28.455 22.3143 30.6938 2776 1
30.3064 21.7405 29.5146 936 1
33.5592 20.6616 27.8021 2726 1
31.1176 19.4962 28.5176 1891 2
33.3088 20.5979 30.0325 987 1
31.4025 20.2987 31.6496 3653 2
35.676 19.3372 27.5176 20120 1
36.3906 18.4272 29.921 3659 1
38.3008 19.4498 28.0829 21910 2
39.6998 21.6628 27.9506 3657 1
36.0794 21.0203 29.666 1900 2
38.8313 18.963 31.1806 3663 2
39.056 21.4577 30.3977 3662 2
74.8868 20.038 43.8524 8498 2
42.0219 20.429 28.8095 22582 2
43.3924 22.8151 29.9717 2784 2
43.9369 21.3605 27.2701 21871 1
41.6817 20.1477 31.5245 25771 1
45.2234 20.7261 29.3961 12875 1
47.9951 20.0988 29.6302 23264 2
57.4264 24.6908 23.1936 18326 1
50.1899 21.4706 29.3487 21895 1
49.8956 19.7753 31.6079 22528 1
52.9837 20.3092 30.8883 21898 1
51.2653 18.8659 29.4034 3670 2
53.1426 21.5883 28.6662 2785 2
56.0308 21.0438 27.8118 23127 1
55.6624 20.4735 30.6403 22564 2
54.3223 18.5506 28.267 22533 2
57.6517 18.6171 27.8599 11602 2
61.5368 18.5632 30.4898 22527 2
57.9569 21.4853 29.1332 23632 1
58.4207 19.3511 31.1438 21893 2
59.7738 19.9797 28.863 20993 1
60.7644 21.7008 30.5764 20141 2
57.7488 22.3086 31.3066 12459 1
62.3526 20.723 27.8226 38322 2
63.4966 18.3889 28.7361 12512 1
64.9781 20.1898 28.0534 12897 1
63.8422 20.7178 30.5079 25850 2
66.755 21.2688 29.9851 11550 2
69.1813 19.6853 28.9799 30802 2
43.7803 42.921 23.2955 41081 1
70.7363 20.6641 30.9614 1659 1
72.1798 20.2625 28.556 22613 2
74.7518 21.4267 29.3046 30808 2
72.8812 19.9181 31.1366 12506 1
74.3968 18.3884 29.537 12895 2
20.0274 22.7351 27.9843 1887 1
19.8408 24.406 29.5441 1930 1
21.6755 25.8141 29.9836 2818 1
22.5959 23.5321 27.9848 1886 2
22.2214 23.0738 30.8287 1841 2
24.7334 25.5535 29.3329 976 2
25.389 23.3745 31.612 2770 2
29.6216 23.7317 27.9565 1944 2
26.7273 25.8735 30.9677 21001 1
27.6352 25.4038 27.5987 1889 2
28.6397 24.4893 30.2593 2771 1
26.6342 23.4312 29.3955 24989 1
29.0428 26.2465 31.7224 2764 1
32.5372 23.2498 29.6837 2775 2
30.9584 25.8437 29.6511 1946 2
33.7124 25.2854 31.5399 2825 2
34.847 25.8572 28.3156 25028 2
35.0502 23.5817 29.8952 2778 1
37.5075 23.754 28.5573 25025 2
36.7103 23.1306 31.3502 5526 1
36.7033 25.9638 30.6021 2828 2
37.545 26.2873 27.8651 1951 1
44.0014 23.8394 27.4688 22532 1
40.3538 24.2002 29.2617 23152 2
42.5501 25.9388 29.2163 3759 2
40.2217 26.8898 27.5556 1958 2
41.4747 25.094 31.4977 2835 1
44.7414 26.366 26.8737 2837 2
46.5976 22.9882 28.7788 4627 2
45.0355 25.0525 29.4084 21900 1
47.3862 26.8206 28.8337 2786 2
46.6781 24.8549 31.0648 3720 1
48.6137 22.8861 31.3347 2736 2
48.8566 25.5941 30.7199 4629 1
52.4264 24.578 27.5599 2024 2
49.368 24.1147 28.2257 750 2
50.9725 24.5446 30.5168 710 1
50.3803 26.991 28.7454 1107 2
51.4435 22.1556 31.807 22570 2
57.316 23.5399 27.5674 23172 1
53.2051 24.3141 29.9516 21056 1
54.2641 26.101 29.0887 42770 1
57.1243 26.3608 28.8947 40027 2
55.7663 23.3469 29.4963 30857 2
54.0927 22.6859 31.2969 2851 1
55.0555 25.7159 31.5637 1056 2
57.5354 24.9231 31.2444 2028 1
59.2928 24.1196 29.4495 20098 2
61.5368 25.1805 30.339 20201 1
61.9364 23.223 28.553 20104 1
61.9651 25.9854 27.8073 713 2
62.8494 23.3736 30.8983 20096 1
64.842 23.0825 28.5179 20100 2
64.2577 25.7899 30.1009 19684 2
69.6172 22.797 29.8808 12867 2
66.7304 24.3322 29.8705 12414 1
70.0497 25.4789 29.0522 19196 2
67.2433 26.6984 28.8045 25879 2
68.3865 25.244 31.7873 12419 2
72.3417 22.6572 30.7569 11516 1
72.3628 25.9881 27.5221 19299 1
70.9179 24.8328 31.7482 20160 1
71.7594 23.2537 28.1257 22672 2
74.4166 23.9192 28.286 20157 1
73.2333 25.0768 30.1881 1651 2
74.6695 22.7359 31.4947 12890 1
20.5576 29.2286 28.1965 63546 2
18.5648 27.1078 29.5418 2763 2
18.8607 29.6159 30.3955 1982 1
21.3264 28.033 30.9197 2859 2
17.6959 30.0391 27.9341 1936 2
23.7181 30.4187 28.2726 1018 2
22.8863 27.6257 28.6948 1929 1
25.0027 28.095 30.8005 1941 2
25.4246 30.8428 30.2501 1986 1
26.3466 29.5547 28.7275 25059 1
29.9481 27.411 27.7073 1949 1
28.973 30.0273 27.7171 1947 2
27.9979 27.6542 29.4495 2769 2
28.2191 30.4381 30.9288 2817 2
30.9208 28.7056 29.9901 2864 2
30.8053 31.1999 29.6035 3749 1
31.5778 30.0873 27.6031 2872 1
33.3662 27.3653 29.9181 24984 1
33.4627 30.6227 30.007 1993 2
34.6945 28.7978 28.4477 24982 1
39.6379 26.9664 30.4308 4664 2