ITEM: TIMESTEP    
85000     
ITEM: NUMBER OF ATOMS  
77888     
ITEM: BOX BOUNDS pp pp pp
17.607 132.393    
18.0782 131.922    
22.5702 127.43    
ITEM: ATOMS x y z id type
19.5773 20.743 23.839 72779 2
21.3847 21.7206 25.7808 977 2
20.946 18.5328 25.2917 1839 2
74.654 68.3873 73.9604 27600 1
23.6548 19.3202 25.3931 23170 1
25.5158 20.7529 24.2517 72824 1
24.0112 21.8244 25.8483 1848 1
25.7634 20.3883 26.7386 22628 1
22.6862 20.7272 23.22 72830 2
25.8856 18.4373 24.6455 22740 1
29.0982 21.0221 25.7989 20062 2
28.0013 19.5774 23.2091 22548 2
30.3737 20.6829 23.3501 2719 1
26.8363 22.3904 23.1491 978 1
33.0198 19.572 23.1182 24988 2
31.6714 20.4009 25.3771 43709 1
34.6272 20.5292 24.778 1851 2
33.1678 18.5728 26.6593 23637 2
33.2546 21.5092 26.7602 2726 1
37.2419 20.9969 23.1724 22537 2
37.4491 21.822 25.59 1899 2
39.5105 19.2815 23.1412 1904 1
37.1434 18.5002 24.9961 22536 2
39.9042 21.7213 23.4614 2790 1
40.129 20.2442 25.7722 1854 2
42.7334 19.0074 25.9105 23128 2
41.9091 20.4868 23.357 43666 1
43.7347 21.0504 27.1717 21871 1
41.7031 21.9529 27.0659 3665 1
74.9928 22.7532 57.5602 5143 1
44.612 20.1809 24.091 1099 2
47.6465 20.3617 24.2835 40834 2
46.0298 19.4557 26.9098 22576 2
48.0903 21.7926 26.6241 1908 1
50.2404 18.5119 23.8432 38521 2
50.1628 21.2203 23.6821 40893 1
49.2919 19.5536 26.3057 22529 2
52.0948 18.6753 26.1619 22574 1
51.3359 21.3405 26.4123 1110 2
52.772 20.4502 23.8333 38365 2
55.4455 19.0276 23.8239 21944 1
54.4032 19.6562 25.8226 12513 1
56.8884 20.422 25.4835 13500 1
55.4889 21.6585 22.8959 39988 2
60.5225 21.9222 23.6252 31298 2
59.8617 19.6117 25.6957 19184 2
59.4919 22.1496 26.7875 31285 2
60.8975 19.238 23.1921 31004 1
58.0364 19.8781 23.2142 38509 2
65.3581 18.3147 25.6913 30999 2
64.7432 21.4582 25.1543 21892 2
62.3811 20.4931 24.7683 31021 1
65.3299 19.2948 23.1244 30371 1
43.6261 18.12 28.5555 22714 2
67.5419 19.9222 24.0504 31023 2
69.3543 21.6349 26.3789 19245 2
66.8774 20.4459 26.7396 20998 1
69.6219 22.7984 23.2895 31019 2
67.1858 22.5116 24.6936 31293 1
41.9245 44.8836 22.6884 41075 1
70.1916 18.6741 26.3743 38366 1
71.0804 20.4613 24.709 30996 2
73.8225 21.8317 25.7789 12413 2
73.2376 18.6727 25.6778 21403 2
21.4359 24.3998 25.2611 25062 1
19.62 25.8996 24.2741 970 1
18.6111 23.4855 25.0234 1928 2
20.6703 26.2332 26.8802 1885 2
20.7223 23.6947 22.8233 19183 2
19.2996 22.4213 27.4821 1887 1
21.8919 26.5388 24.1235 52493 1
23.3689 25.8792 26.2019 1888 1
23.7621 23.8367 23.9839 25024 2
25.7815 25.4622 25.4972 1945 1
24.7101 26.7229 23.5041 25061 2
24.5257 24.0601 26.9378 1884 1
26.5742 22.7826 25.6753 1846 2
29.6311 23.3992 24.7102 1895 1
27.6246 25.0889 23.5934 1943 2
28.771 24.7238 26.9473 1944 2
31.0996 22.8908 26.615 25026 1
31.1969 25.6724 25.1729 40920 2
33.2661 24.0489 26.2171 25060 1
32.3338 22.867 24.1285 989 2
34.3527 26.256 24.4564 1035 2
35.3275 23.4876 24.1078 40928 2
37.4605 25.3557 25.4982 2729 2
57.4166 24.844 22.8215 18326 1
21.7107 74.5839 55.0721 62632 2
42.8004 22.4997 24.7505 40934 2
39.9792 23.5972 25.6566 3770 2
41.8691 25.0997 23.9242 1956 1
42.2134 24.5737 26.3297 2782 1
39.9248 26.1923 24.7262 2836 1
44.1578 24.8953 24.4991 41801 1
45.6791 22.69 25.4951 43705 2
46.7834 25.8044 23.8381 40939 2
47.5552 24.5976 26.3665 1153 1
44.9726 25.5654 26.8945 2837 2
66.8037 75.1044 34.4902 23587 1
49.139 23.4469 24.9109 40989 2
50.1816 26.0679 25.6781 2020 2
52.0774 23.46 24.0016 19180 2
67.8053 18.1501 26.397 30809 1
54.6433 22.5317 25.7341 23176 2
52.7847 25.9793 25.041 23642 1
54.9692 25.2196 26.3972 40030 1
54.9767 24.8869 23.6767 40025 2
57.0394 23.6003 27.0183 23172 1
57.4646 25.9616 25.3276 18330 2
57.8249 22.9346 24.7558 38629 2
60.0046 25.0339 26.3412 20148 1
60.1489 24.9019 23.569 199 2
17.4752 68.1988 22.5583 50596 1
62.1695 23.3745 25.535 19285 2
65.1622 25.3849 26.2757 20106 2
64.3946 24.0219 24.13 18327 1
62.9155 26.5545 24.5019 19229 2
69.8815 24.7496 25.5529 1065 2
67.6801 26.3106 25.9405 19241 1
67.1973 24.8125 23.5205 31294 2
67.3362 23.5504 26.9831 31002 2
72.1368 23.3544 24.3428 12457 1
72.0273 26.0973 25.0123 30290 1
73.9428 24.6671 25.2857 43162 1
73.4871 25.4766 23.0277 44079 1
75.0204 22.8631 23.0553 39972 2
62.7348 18.505 26.0488 31001 1
18.1401 27.2737 26.4073 63548 1
19.833 28.6438 24.917 1933 2
21.8508 31.0626 25.26 1071 2
17.9589 29.2835 22.9209 63688 1
22.3858 28.3376 25.7429 63545 1
24.516 29.5729 24.5336 1023 2
25.1276 27.7298 26.8459 1025 2
18.1232 43.3868 30.7882 54420 2
29.4357 27.2193 23.3379 41796 1
26.724 30.0037 25.8478 40916 1
28.0839 27.4206 25.6821 39954 2
28.7866 29.6273 23.9029 19240 1
26.7774 28.5283 23.2091 986 1
30.6917 28.6701 25.2166 983 1
33.7676 74.9034 62.1898 10713 2
33.0034 27.8752 26.7578 41845 2
33.2314 29.535 24.1504 41885 2
34.1018 30.4621 26.4349 1033 1
31.7358 30.2026 26.7314 2872 1
38.0312 27.1454 23.2443 2779 1
36.083 28.4844 25.5593 40926 2
38.1191 30.3541 25.8867 2010 1
37.9324 29.7388 23.5038 2000 1
38.6968 28.0075 25.568 1083 1
42.4513 27.2074 25.5484 41842 2
40.5149 28.912 23.5649 1907 2
43.3488 29.938 24.6668 43703 2
40.7544 29.7819 26.2525 40975 2
42.9353 27.4077 23.0721 1897 1
44.9409 27.5394 24.9282 40985 1
46.4854 29.9464 23.9951 41032 2
47.5156 30.9258 26.5743 2942 1
45.6012 29.1675 27.0196 41849 2
48.4588 27.879 24.3175 41894 1
49.1537 30.0702 25.221 1954 1
50.2995 28.7627 23.416 42717 1
52.0747 28.2351 25.3418 40996 1
51.667 31.1666 24.4701 1163 2
50.7412 31.2573 26.974 42715 1
52.5176 27.217 22.5695 1165 2
54.6659 27.8974 26.0784 20144 2
53.5613 29.4298 23.7784 1105 1
55.8058 30.6802 23.9032 248 2
54.1824 30.9197 26.1625 1164 2
55.8772 27.7128 23.4698 19382 2
56.7753 29.5242 27.2974 1973 2
60.3597 27.0534 24.9757 246 1
58.3049 28.8765 25.07 19231 2
61.0006 29.406 23.7373 2792 2
59.9489 30.9703 26.8771 200 2
59.0702 31.1458 24.0373 1109 1
58.5296 26.9368 22.7824 19227 1
65.8805 27.132 24.4142 18337 1
61.8582 28.8818 26.048 19243 1
64.3315 29.2864 24.3402 19242 2
63.5856 31.0585 26.5112 20214 2
65.9042 74.8039 55.5755 27161 1
68.6568 27.6789 23.6022 30998 2
70.0893 27.6799 26.5825 19186 2
67.2992 28.8681 26.0444 12515 2
69.8209 30.1356 24.588 43818 1
67.1241 30.5134 23.6328 30833 2
74.7181 27.6598 24.1509 30993 2
71.5289 29.8518 26.016 19294 1
73.2968 30.3304 24.6689 43804 1
71.6944 28.3571 23.6577 18339 2
72.9439 27.989 26.2672 18336 1
18.5451 31.5152 24.7014 63536 2
18.9945 34.6346 24.1581 1017 2
21.1167 35.0861 26.8274 63543 1
19.9952 32.6679 27.1976 1934 2
21.9512 34.018 24.6618 1060 2
20.7369 32.3279 23.0957 74584 1
24.756 32.6795 25.4352 63681 2
24.515 34.7965 24.0812 43702 1
26.93 34.2211 24.8233 1070 1
27.9839 32.2695 25.648 40965 1
28.9331 33.9942 23.1799 1031 2
26.8679 31.6179 23.3122 40917 2
30.4851 34.0277 26.5582 2916 1
27.7931 34.244 27.0586 1989 1
30.5564 31.8508 24.7171 1940 2
34.5985 34.4834 25.8509 24974 2
33.259 32.2578 24.5842 984 1
31.8466 34.7843 24.2468 1029 2
35.8248 31.536 24.6693 41893 2
38.7791 32.5124 24.4876 1199 2
36.6175 34.8717 23.8691 41937 2
39.0872 34.9854 26.0347 20283 2
36.9324 33.2745 26.3391 1080 1
39.1157 35.4452 23.3935 19202 1
41.0708 31.5186 23.9327 42701 1
41.2406 34.3839 24.3606 2002 1
43.3376 32.7494 23.2649 41848 2
41.841 32.8596 26.303 2004 2
43.7948 35.2087 25.3353 2990 2
46.676 34.9325 24.8392 2067 2
44.9885 32.3744 25.8063 43700 2
46.3908 32.5694 22.9181 197 2
48.8438 32.8107 25.1886 237 2
49.8233 35.3315 24.5806 41035 1
51.7084 33.9055 26.3041 2022 2
51.0656 33.5676 23.3147 291 1
56.3152 34.9157 24.956 19334 1
53.9188 33.662 24.3038 20251 2
54.9355 33.6103 26.6659 249 1
57.2479 32.2984 26.0656 2077 2
58.6496 33.8527 23.8554 241 2
61.0181 35.3601 22.7718 1111 2
61.5642 32.3963 24.6357 1112 2
59.4296 34.1886 26.8585 19233 1
61.8283 34.9061 25.563 43165 1
64.6832 32.3805 23.9857 18380 1
63.9948 33.6975 26.0039 19341 1
64.0161 35.3487 23.7349 19232 2
66.0121 35.1525 25.6487 19339 1
66.6951 32.451 26.0886 19289 2
67.4154 34.1532 23.7778 19288 1
69.0987 32.4553 24.5023 20162 1
68.7992 34.371 26.0129 19293 1
74.146 32.4113 23.2093 19297 1
71.6737 32.5216 24.689 19246 2
73.0544 34.8811 23.6048 43988 2
74.6634 32.7799 25.9558 19301 2
71.5139 34.3934 27.0372 19295 2
20.7985 36.8839 25.2728 63542 1
19.411 37.3682 23.5749 63669 1
19.7636 40.089 24.5155 63537 2
23.6489 35.5336 26.1929 1069 1
22.3149 38.8344 26.3827 1979 2
22.9853 37.1728 23.9356 1988 2
25.0513 39.2451 24.6986 2036 2
26.0632 36.5312 25.7857 1075 2
25.3126 37.185 22.7801 2034 1
29.3035 36.1607 25.6525 1074 2
27.7091 36.8638 23.0497 41015 2
30.115 39.0135 24.3116 1028 2
27.9873 39.1549 25.8637 1122 2
62.5326 74.9978 36.6753 22682 1
34.7613 37.6223 25.6173 2829 2
32.2516 37.5618 24.7511 1079 1
34.091 36.2571 23.4866 41936 1
33.4095 39.0645 22.774 1135 2
35.7061 40.0874 24.5555 1998 2
37.9392 37.6433 24.7029 41068 2
57.5943 74.936 61.3473 28038 1
36.7091 36.0112 27.3435 1995 2
41.6721 35.45 26.7149 2944 1
40.8115 36.8673 24.6304 40988 1
42.8627 38.6899 23.3402 1204 2
42.5654 37.7561 25.914 2066 1
40.4165 39.4948 24.9314 41984 2
45.0364 37.9223 25.7675 41031 1
48.0939 37.6068 25.1225 330 2
46.0683 39.3591 23.6902 286 2
44.8958 36.8165 23.6021 1159 1
47.0219 36.5427 22.6063 1197 1
52.2731 36.1093 23.8089 1155 2
51.2099 36.93 26.474 1162 2
50.3862 39.4507 25.1654 290 1
49.6933 37.6008 22.9178 40108 2
53.058 38.9534 24.8662 18473 2
53.8482 35.8608 25.9967 1208 1
55.2913 37.2603 24.275 20297 2
55.2617 39.5457 26.4462 388 1
56.4094 37.1755 26.675 19276 1
70.7319 34.102 22.4572 18438 1
75.0668 38.7489 67.7266 29358 2
60.3844 38.7795 23.1987 18381 2
58.8159 36.4541 25.1987 2121 2
57.6696 39.385 24.9731 18430 2
60.3845 38.7041 26.0473 18376 1
57.8464 36.9788 22.6803 288 2
61.5934 37.0445 24.768 1119 1
63.075 39.2991 25.8507 19286 2
63.6322 36.4621 26.109 20213 1
63.2052 38.0754 23.2437 19236 1
65.657 37.9588 24.9609 19281 2
65.6014 39.5937 27.0493 20260 1
65.0887 39.6544 22.9929 44031 1
70.1797 35.9791 24.4229 19349 2
66.8784 36.2724 23.716 20215 1
68.4604 38.1968 24.198 19290 1
68.0783 39.8634 26.3377 163 1
68.5147 37.0637 26.813 19291 2
49.2538 74.8525 66.6896 13405 2
74.5664 38.9978 23.904 18489 1
70.735 38.8556 25.6665 18437 2
72.4095 36.4234 25.6793 25899 1
74.0061 38.3915 26.344 19352 2
72.6228 37.7285 23.7626 18386 1
19.1318 42.3006 26.0944 63648 1
19.8659 42.7153 23.7329 63678 1
21.3126 41.4838 26.6266 63529 1
21.1013 44.3325 25.8783 63528 2
22.7108 40.1628 23.96 2045 1
23.7738 41.006 26.6048 2039 1
22.2835 42.3733 24.4907 21093 1
24.9916 42.0519 23.5995 41066 2
24.1165 43.4541 26.2053 63091 2
26.6699 43.8954 24.8857 2969 1
26.6245 41.5605 26.1978 2037 2
30.2269 41.3415 26.0569 25055 2
28.3225 42.1076 23.8686 43701 2
34.4955 50.2954 22.5432 41077 2
17.9473 18.0133 62.7431 62511 2
31.372 43.788 24.8604 2090 2
32.7488 40.2562 24.8352 41941 1
31.2217 41.5288 22.9297 41883 2
34.2635 42.8192 24.3634 2051 2
34.2695 44.1768 26.7472 41940 1
32.8561 42.1623 26.7868 1994 1
28.1949 52.3121 22.4252 50477 1
38.3487 40.9893 25.6208 1202 1
36.6873 42.2258 22.8263 2056 1
36.7564 44.4556 24.9374 41939 2
38.4015 40.226 22.9006 41072 2
39.3629 42.8577 24.0173 3133 2
38.4889 42.9335 26.7331 41078 1
42.2638 41.3212 23.9743 1200 1
41.2327 42.424 26.278 1198 2
43.4397 40.227 25.6815 25047 1
43.7884 43.456 25.322 1251 2
44.7503 41.5325 23.9423 25049 1
46.5583 41.3188 26.3254 2119 2
46.667 43.5177 24.0287 1254 2
48.5462 41.002 23.9399 41038 2
49.2972 42.1268 26.1397 2113 1
51.6058 42.1767 24.7419 289 2
49.128 39.7782 27.1694 1213 1
28.9918 74.7773 55.0256 9039 1
54.2189 43.8221 23.6724 1307 1
55.305 41.3885 24.2721 18427 2
55.1182 43.4894 25.7829 39218 1
56.8735 44.0052 22.7586 1350 2
53.6542 41.5492 26.2502 20299 1
58.2676 41.3656 22.9886 19282 2
57.7202 42.7059 25.5564 19337 2
60.5363 41.413 25.0163 20206 2
59.6245 44.0543 24.2923 1255 1
61.5558 44.0017 26.1457 20298 2
61.793 43.1286 23.5327 18479 1
62.7283 40.6714 23.4914 18379 1
64.2747 42.0506 25.6894 19338 2
66.4304 43.6277 23.7377 19384 1
66.831 41.0295 24.4707 18433 2
69.6311 41.1999 23.931 18439 2
68.2841 43.2527 25.0352 19396 1
69.7194 41.941 26.7673 19340 1
70.5037 43.6746 24.7457 19389 1
72.2105 40.1473 23.4725 18443 1
71.7434 41.4722 25.4652 20353 1
73.1793 43.9432 25.5384 2141 1
74.3479 41.3407 25.45 20361 2
72.3818 42.8491 22.8227 19401 2
21.9212 44.5485 22.7124 48570 2
18.7056 45.2382 24.8104 63282 2
18.7922 47.8346 26.0635 63280 1
21.783 47.4199 24.7961 53468 2
24.2961 45.5004 23.8565 63650 2
24.5206 47.7451 25.4821 2088 1
25.4101 48.4411 23.1215 41060 2
52.8524 48.8103 22.4058 1298 2
27.284 46.5178 24.3229 41064 2
29.0289 44.7179 24.3797 2049 1
29.8289 48.4383 24.7077 41946 2
28.8272 46.6346 26.5092 1131 1
31.0921 46.5214 26.3577 2046 1
33.287 46.0102 24.4352 2157 2
32.099 48.7537 25.6373 2922 1
34.6767 48.9198 25.178 2095 2
32.6228 48.0707 23.1789 2092 1
35.3295 46.3059 26.3541 3952 1
39.1443 46.111 23.6935 41124 2
36.1531 47.1362 24.0704 41990 1
37.9275 47.5319 26.1136 2159 2
39.3846 45.0057 26.2235 2156 1
37.292 49.3246 23.594 2155 1
41.3781 44.8254 25.1652 1249 1
41.778 47.5029 23.8984 1293 2
41.0013 47.0838 26.375 1292 1
43.2859 46.3012 25.5279 2162 1
74.8128 55.6087 31.9695 21348 2
44.6618 48.3851 24.1974 2169 2
45.8348 45.7583 24.9615 381 1
46.2249 47.667 26.4732 21219 1
44.231 45.3942 23.4628 1257 1
48.0934 46.6663 24.8293 385 1
48.3001 48.5897 26.4077 2214 1
47.7034 44.2744 26.8201 1253 2
49.6966 44.2057 24.2386 340 2
52.8311 44.8382 25.8039 25040 2
51.9389 44.5795 22.9458 2120 1
51.8427 46.8939 24.4706 1345 1
49.7816 46.2239 26.8872 2208 2
67.53 71.0861 75.1777 26002 2
56.3427 45.7642 24.9671 1306 2
54.2074 48.741 25.1388 19428 2
53.843 46.3603 23.5079 1264 1
56.0826 48.2773 23.0724 19426 2
57.2172 48.5264 26.1436 21280 2
58.9649 45.8922 26.0169 1303 2
58.9711 47.0837 23.2258 20346 2
61.8662 46.3023 24.0896 20338 2
63.8452 44.0988 24.2339 18435 1
61.4997 46.7332 26.5522 259 1
63.8546 45.8828 26.1118 20304 1
65.0478 46.3714 23.6377 19386 2
66.282 44.922 26.1168 21284 2
63.8525 48.721 25.5485 18534 2
62.8899 48.622 22.8682 1274 1
74.912 45.0012 36.7471 22108 1
66.4723 47.7178 25.3384 25875 1
68.2795 45.8028 23.9191 21192 2
69.3848 48.2416 26.0309 19439 2
69.974 48.4221 23.1314 18476 2
69.3152 45.0336 26.9835 20308 2
74.8093 46.3197 25.4168 20313 2
71.6485 46.3056 25.0745 19436 2
73.312 45.3667 23.2035 18542 1
73.2084 48.3491 24.006 19445 2
70.7681 45.3221 22.721 19395 1
19.4132 49.6234 24.4379 63274 2
18.2041 52.1738 24.4869 54461 1
20.4928 52.2982 23.1137 63632 2
24.4364 50.0895 25.5363 63527 1
22.5146 49.871 23.3953 48669 2
26.2391 51.8257 27.0512 63483 2
21.931 49.7652 26.7013 48858 2
26.0737 51.4472 23.9057 2085 2
22.6544 51.8402 24.9718 63486 1
27.8127 49.2281 23.3033 41062 1
27.0635 49.1001 25.9372 63281 2
29.0831 51.2595 24.8116 24951 2
30.8936 52.5713 23.4114 2040 1
31.9377 50.3527 23.8555 41115 1
31.3703 51.0211 26.053 40237 1
34.5584 51.4427 26.4247 41120 1
33.3791 52.636 24.616 2048 2
28.7012 74.9146 29.843 21025 1
36.7925 52.0348 24.5513 378 2
36.9752 49.9568 26.1936 63642 1
39.8229 49.4101 25.0262 1294 2
38.6346 51.5093 26.9702 1336 1
41.9483 52.9699 23.1148 431 2
40.2386 52.4618 25.1654 1339 2
42.6182 50.4638 25.4187 2200 2
47.6848 49.3202 23.6097 41079 2
44.6354 51.7588 23.3431 383 2
45.7453 50.1742 26.1796 1295 2
46.9615 52.1263 24.2993 2240 1
48.3221 51.0235 25.623 394 1
50.6465 49.2442 25.1549 2213 2
49.5044 51.8677 23.2935 3092 2
52.6689 51.2314 24.069 25001 2
50.4464 51.9231 26.7556 4065 2
52.7245 50.1183 26.7032 1301 1
71.9165 74.803 39.4547 22691 1
55.7512 51.2778 24.0617 1268 2
53.504 53.1493 26.617 25885 2
60.4838 49.0009 25.3664 2172 2
57.8161 51.3416 25.9122 1310 1
58.2062 49.8548 23.8889 19470 1
59.8222 51.8082 24.2089 3150 1
60.9189 51.4286 26.9379 20342 2
62.5273 51.1807 24.1541 19483 2
65.4657 51.0137 25.0538 20397 1
64.8549 52.3951 22.9306 18526 1
65.4971 49.4239 23.0659 20344 2
67.8559 49.6696 24.3017 25042 1
67.4829 52.2817 24.2387 19482 2
70.3119 51.2549 23.7676 19488 2
69.1608 50.8878 26.211 1224 1
72.0022 49.3799 26.2668 2268 2
72.7583 51.9966 24.6047 19532 2
74.2039 53.2028 26.6701 20447 1
20.61 52.9199 26.3732 63060 2
19.1136 54.9247 24.3417 63500 2
20.7606 57.2532 25.4913 48680 2
17.8376 56.4273 26.4003 50587 1
22.328 54.6425 23.7666 63481 2
24.4857 53.3446 25.0186 63235 1
23.569 56.9713 23.8391 63634 2
22.2943 55.2275 26.3664 63046 1
25.6444 54.5904 22.967 2084 2
26.6326 57.0328 24.4795 63479 2
27.4189 53.8971 25.2071 2089 2
29.1964 56.3286 24.6836 3022 1
30.5334 54.1696 25.4979 40239 2
30.8905 57.3278 22.9351 25023 2
33.1908 55.0782 25.651 41977 1
31.2832 57.2946 26.2175 2982 2
32.3172 55.0953 22.9222 42703 2
35.2678 54.9568 23.8157 41126 2
37.5164 54.519 24.9283 477 1
36.2064 56.9297 26.0827 376 2
37.2814 57.4482 23.3391 1338 2
39.3549 54.3007 23.5341 25067 1
35.5425 54.27 27.1137 41170 2
39.2141 56.5784 25.7118 3191 2
43.5297 53.4998 25.8541 1388 2
43.5324 55.5089 23.3379 435 2
41.3859 55.1882 24.6553 19545 1
43.471 56.4454 26.9265 2289 2
41.1474 54.4101 27.0386 2201 1
45.8711 54.4026 24.2539 1386 1
47.7315 56.5234 22.9338 1348 2
45.8306 55.8042 26.0662 1347 1
47.6192 53.833 22.733 438 1
48.4805 54.4711 25.3855 1297 2
46.3733 53.0871 26.835 1389 2
50.1788 57.2464 25.3044 20463 2
51.316 53.4999 24.633 19565 1
52.6306 55.5859 24.7636 1399 1
50.7382 54.8173 26.5966 1394 1
17.7148 29.1752 42.3374 5601 2
55.4824 54.5833 25.3436 19469 1
54.532 56.5295 23.2543 20435 2
55.4572 56.2878 26.75 19657 1
53.7276 53.8135 23.8638 1352 1
57.2746 55.6574 23.7226 19517 1
17.5292 57.1478 54.6425 9556 2
57.6515 53.3374 24.6044 1267 1
59.4729 53.7303 26.3596 19379 1
60.0176 54.685 23.7829 20390 2
58.2233 56.1001 26.3275 25887 2
61.0445 56.9778 25.2124 25865 1
59.1688 57.1721 23.9315 18630 1
62.1146 53.8469 25.6106 19476 2
65.277 53.7024 25.6844 19486 2
63.9945 56.5298 24.6125 19570 2
75.0388 21.0797 52.4951 5119 2
63.083 54.2055 22.7183 18633 2
67.7777 55.0831 24.8863 19585 1
69.9913 53.9694 25.5334 19524 2
69.5348 56.6539 23.0843 19586 2
69.1909 57.076 26.3499 19626 2
68.8457 53.9744 22.8333 19523 1
72.7967 54.4301 25.274 20402 1
73.8508 56.3718 23.7661 20444 2
71.4108 56.726 25.0546 20488 1
74.4829 55.7113 26.4272 20446 1
71.7407 54.0797 22.8284 19489 2
17.9027 58.2757 24.4344 63187 2
19.0626 60.6609 23.0339 53700 2
21.5622 59.5375 23.9415 63438 1
19.7488 60.204 25.4586 63040 1
17.6578 19.2715 30.0894 59349 2
23.2143 57.4683 26.6256 63485 1
22.112 60.0891 26.5001 63183 2
24.3158 59.7287 24.6351 63433 2
22.587 61.4836 23.0647 63598 1
26.7368 60.8929 26.2436 63042 1
28.9269 59.0848 25.1153 63272 2
28.9442 60.5097 22.7757 53557 1
26.8692 59.6181 23.6479 63410 1
28.8892 61.8723 27.1289 48774 1
33.9279 57.5509 24.1815 428 2
33.1688 59.3606 26.0299 24941 1
31.6372 59.965 23.8299 1382 2
31.005 60.6227 26.3718 3012 1
35.2761 60.2191 24.5334 24999 2
37.9501 59.4845 25.9468 1385 2
37.5778 60.3375 23.0406 426 1
36.4794 62.0996 26.1178 20458 1
42.166 57.5137 24.5963 481 1
43.0054 59.5274 22.409 479 2
40.1449 59.4165 23.7253 429 2
40.917 58.6923 26.3368 2333 1
42.1828 60.96 24.8952 19607 1
43.3519 59.147 25.9141 1387 1
47.5532 57.6386 25.3605 1393 1
45.0757 57.7512 24.1962 1390 2
45.5746 60.4361 24.8151 1445 2
48.5051 59.3853 23.5822 1447 2
48.5602 61.7481 25.3234 1444 1
44.1805 61.8285 22.7582 483 1
48.6277 59.5098 26.6409 2294 1
52.0216 57.8848 23.4609 491 1
50.9944 60.1203 24.9929 19569 2
53.1901 57.9596 25.7711 1398 2
56.4746 58.3267 25.1409 448 2
53.9492 60.746 25.8408 24996 1
54.2392 59.6972 23.091 20473 2
49.7733 25.8127 22.9674 23205 2
57.7344 60.9632 23.7165 19618 2
59.3966 58.9259 25.9464 444 2
60.75 60.9051 24.7733 20476 1
24.4154 74.8397 65.3646 11708 2
62.3202 58.98 24.4487 19572 1
64.5511 59.288 25.3272 19520 1
63.152 61.4323 23.4626 19580 2
62.9025 61.0564 26.5849 19623 2
62.6418 58.3014 27.0567 20428 2
66.9662 57.6423 24.3084 1420 2
69.4212 59.7461 23.9695 20487 2
67.6724 59.4858 26.0474 20483 1
66.2176 60.8688 23.8736 546 2
74.2483 61.0179 26.1104 20497 2
72.3448 59.1962 24.0538 20485 2
73.6017 58.0707 26.5718 20489 2
71.3864 61.4059 25.5661 21396 1
71.1585 61.4083 22.8871 19632 1
17.8738 62.3058 25.3851 55544 2
21.1478 62.5008 24.865 63425 2
20.9717 65.5765 23.8889 54635 2
18.1783 65.0963 24.6542 55588 1
19.1708 63.5239 23.0428 53783 1
24.3333 62.5368 25.5498 54632 2
23.5614 64.2528 23.4873 63600 2
26.0751 65.1854 25.085 63028 2
22.533 64.8265 25.9898 48872 1
26.5738 63.8612 22.3323 63474 1
27.7036 62.4806 24.2418 63227 2
28.7235 65.1809 23.4297 5799 2
29.1433 64.7458 26.5176 63176 2
30.6613 62.7912 24.8206 24954 2
26.8647 63.4031 26.8204 63043 1
33.7995 62.2001 26.6027 3025 2
33.6892 62.9485 23.7639 19499 2
32.1698 64.7433 26.1999 2284 1
33.625 65.7463 24.3908 24853 1
64.3513 17.9804 38.0769 9405 1
39.3236 62.1364 24.5523 24937 2
36.7022 63.1123 23.4064 2288 2
38.9396 65.7403 24.2171 2328 2
35.8786 64.8548 25.7232 3184 2
41.7729 62.1411 22.924 25906 1
40.3672 64.0239 22.9834 2286 1
41.6085 63.6225 25.7264 1439 2
41.5528 66.025 24.2053 572 1
44.0966 63.0043 24.8911 1391 1
44.244 65.8273 25.1492 1442 2
47.2933 62.0136 23.2572 1395 1
46.7111 63.8029 25.7116 1443 2
48.4738 65.7531 23.7471 1446 2
52.9054 62.0013 23.635 2342 1
50.2637 62.8965 23.4602 19660 2
49.5049 63.9849 25.8394 25036 1
51.7719 65.4493 23.9029 2381 2
52.2497 63.0402 25.9668 19617 2
55.528 62.0343 24.7979 25862 1
54.3532 64.1954 24.1184 19665 1
56.1848 63.9412 26.0407 20518 1
53.8075 65.1181 26.5661 1490 1
50.5893 74.9217 72.1404 14280 1
57.4514 64.1996 23.7891 20521 2
60.397 65.406 24.483 19670 2
57.9229 65.712 26.1822 20522 1
59.089 62.7518 25.8533 20525 2
60.4685 62.7618 22.6741 18729 2
61.9456 63.3332 25.1751 25860 1
64.7745 63.3164 24.6554 19625 1
63.2749 64.1682 23.1301 1455 1
65.166 65.5087 23.5328 2354 1
63.3782 65.4256 25.3847 19624 1
66.2591 65.5079 26.3336 21433 2
67.0777 63.9307 23.8165 602 1
66.8873 62.5596 25.6759 20533 1
69.6729 63.3257 24.5192 20527 2
68.9719 64.4971 27.0858 25854 1
70.9713 65.2997 23.1927 1461 1
75.022 65.3853 24.9263 22590 1
73.032 63.0391 24.1058 19679 2
71.7571 65.8424 25.4456 21693 2
71.1197 63.6344 26.7431 19639 1
60.3789 74.9845 55.9058 28043 1
17.8242 69.6876 25.0347 63016 1
18.4456 66.7486 26.6791 50692 1
19.1352 67.6096 24.4304 54678 1
19.6691 70.0391 22.8983 54856 2
21.8217 68.3765 23.6264 63142 1
21.0258 67.4897 26.3296 63177 2
56.1698 18.1673 38.4577 519 1
23.4037 66.5742 24.35 63141 1
23.3663 68.9991 25.8493 54677 2
25.5977 67.7969 25.0107 63140 1
25.97 70.2485 25.2612 63124 1
24.5354 69.4313 23.1283 48693 2
27.9713 67.5605 25.837 63144 2
27.3073 69.2795 23.697 55682 1
29.9864 69.9831 24.7065 63139 2
29.0041 67.7512 23.1765 1383 1
31.0039 67.0564 25.1864 63037 2
33.5657 68.015 24.2215 48819 1
32.798 69.6452 26.1473 4408 2
34.5777 70.234 23.8651 21775 1
33.9544 67.026 26.813 5806 2
32.3894 70.2918 23.4272 4458 1
38.1455 66.8088 26.4782 2332 1
36.3383 67.9017 24.9096 2373 2
37.725 70.615 24.0929 4204 2
39.2837 70.3623 26.4468 2419 1
35.6418 70.5357 26.3034 3598 1
39.8644 68.4135 24.9173 1482 2
42.6348 68.789 24.8293 579 1
41.8746 70.4758 27.0004 1485 1
17.6992 32.1804 42.5223 62785 2
45.851 66.055 22.9236 525 1
43.9976 70.5148 24.2253 530 1
45.7239 68.0423 25.048 578 2
46.4381 70.3684 24.0668 3300 1
44.8738 70.6776 26.7634 1483 2
48.1939 66.6607 26.684 19614 2
48.5093 68.7583 24.7933 1528 1
50.3791 67.4316 24.8338 2338 1
51.5444 69.465 23.703 1488 2
52.8807 67.5704 25.4283 2427 1
50.8561 69.1575 26.8797 24995 2
48.9179 69.9746 22.6037 1535 1
55.4108 66.6384 25.2319 2430 2
54.0582 69.793 25.8548 1533 2
56.3223 69.3694 24.265 2425 1
54.0503 68.2382 22.7643 19710 2
60.8408 68.8653 24.0964 19718 2
59.1773 67.6635 25.9187 20569 1
58.5186 69.8814 25.4082 25855 1
58.0005 67.4363 23.6254 25882 2
62.0463 67.3003 25.8525 20571 1
62.7485 66.8714 23.1052 18779 2
64.6047 67.8749 25.0068 20529 2
62.955 69.7687 26.2938 21735 1
63.2566 70.7669 24.1802 25856 1
68.6737 66.2869 24.373 18736 2
66.6006 67.9675 22.8317 21739 2
70.1804 68.5126 25.3279 25816 1
68.9775 69.2441 23.4483 18741 1
67.57 68.3657 25.9229 22589 2
73.189 68.5111 24.4576 2592 2
71.7124 68.0182 26.8632 25853 1
71.3455 70.1401 23.622 21785 1
70.8455 67.704 23.0379 2396 1
20.2755 70.6071 25.8146 54810 2
18.9082 73.4557 26.18 54859 2
18.0098 71.8997 24.0456 63105 1
21.3992 73.329 24.4857 63116 2
18.8101 74.2507 23.2885 63363 2
22.2611 70.6531 23.9185 63128 1
23.5594 71.8504 25.5494 63010 1
24.595 72.2021 23.0087 63118 2
25.9797 72.8823 25.4328 48908 1
24.4338 74.2795 27.0876 4505 2
26.4744 74.438 22.8895 3538 1
28.9181 73.1614 25.7083 4507 1
27.5783 72.0102 23.6826 63125 2
28.9906 74.3776 23.1427 24854 1
65.1612 18.3072 45.0682 8444 2
30.9775 72.6177 23.6457 3587 2
31.2434 72.4565 26.7765 3543 2
33.7459 72.6042 25.0775 3599 2
35.9009 74.6138 23.4669 3602 2
38.8622 73.4468 23.4188 22511 2
36.6999 72.6759 25.2953 3597 1
35.7101 72.1796 22.7571 63178 1
39.3399 73.2689 26.4203 4520 2
41.0365 71.344 24.6252 2374 2
42.7527 73.2824 26.3288 1532 2
42.9365 72.9385 23.1094 577 2
41.0179 74.3117 24.4809 19699 1
45.5494 72.8938 24.3165 1487 2
17.2578 45.0879 57.327 62271 2
63.0878 75.0836 55.1924 27112 2
49.0799 71.5757 24.8619 2426 2
51.8301 71.5148 25.2376 2431 1
51.3006 73.9864 25.0554 21736 1
53.061 74.5435 23.2234 22631 2
54.5163 71.4727 23.3487 25821 2
55.5545 74.2554 25.8672 21729 1
56.4544 71.6716 25.672 21476 2
56.8719 72.9374 23.2192 2432 1
53.6634 72.9216 25.5772 21526 1
58.534 73.9197 25.2224 20618 2
60.8821 71.738 24.883 20619 2
60.5663 73.8134 22.9038 21788 2
58.617 71.2399 22.884 19667 2
57.9012 75.1067 22.9575 25814 1
65.8716 70.7055 25.1086 20824 2
63.5682 73.3875 24.6646 22588 2
67.3938 70.9351 22.8846 21740 1
68.6695 71.285 25.3422 21737 2
66.6459 73.3505 23.9218 21781 2
70.0546 72.4709 23.0604 22688 2
68.7984 75.0037 25.4105 21787 2
66.397 73.543 27.1095 22638 2
71.402 71.0213 26.2042 22642 2
71.4242 73.6952 25.6789 25817 1
73.2301 72.5622 24.0294 20834 2
73.9237 72.3422 27.0397 21791 2
66.5181 18.0947 33.6658 12510 2
31.5909 74.7611 36.8271 5366 1
71.7654 71.1475 71.1363 14222 1
19.5109 19.9475 27.6356 1881 2
20.7937 19.0233 30.2351 2716 2
21.8011 21.3193 29.0448 25064 1
19.3957 21.8439 30.4721 20051 2
19.2493 47.1541 22.5335 63525 2
25.6055 18.8209 29.1364 784 2
22.8661 19.297 27.81 20009 2
24.6229 21.6886 28.6584 24990 2
23.6247 20.6801 31.3055 3701 2
26.4869 21.0848 30.7032 2772 1
27.5804 21.861 28.3316 2717 2
28.3728 18.8567 29.7051 1847 2
29.3956 21.2069 30.3447 2776 1
30.9637 20.4936 28.2582 1891 2
34.0515 20.3026 29.1697 987 1
31.8121 20.4024 31.193 3653 2
35.5892 19.9426 27.27 20120 1
35.915 18.7629 29.7357 3659 1
38.1568 19.2764 27.9105 21910 2
39.3155 21.835 27.9846 3657 1
36.6364 21.2832 29.5492 1900 2
38.6667 19.2054 31.0244 3663 2
39.3873 22.0696 30.664 3662 2
41.1584 20.088 28.8605 22582 2
43.092 22.0969 29.9827 2784 2
41.3391 20.2979 31.4721 25771 1
60.114 59.2394 22.6361 19575 2
45.304 20.2395 29.7 12875 1
48.1512 20.0243 29.1858 23264 2
50.5682 21.0857 29.1258 21895 1
50.2246 19.4745 30.9832 22528 1
52.7686 20.1009 30.6309 21898 1
51.2963 18.5924 28.7184 3670 2
51.445 22.1149 31.3895 22570 2
55.8902 21.0771 27.5294 23127 1
53.2321 21.857 28.6669 2785 2
55.4816 20.5247 30.319 22564 2
54.3745 18.6906 28.209 22533 2
57.6103 18.7817 27.6205 11602 2
61.5026 18.337 30.4206 22527 2
57.8811 21.3804 28.7619 23632 1
58.1043 19.3759 30.8415 21893 2
59.7986 19.6807 28.5402 20993 1
60.5967 21.6633 30.1965 20141 2
62.0634 20.9212 27.4319 38322 2
63.3661 18.5228 28.4272 12512 1
64.6966 20.3631 27.5588 12897 1
63.6867 20.6062 30.3227 25850 2
65.688 18.9299 31.168 31025 1
66.5926 21.4032 29.2273 11550 2
68.9906 19.6383 28.54 30802 2
70.6189 20.814 30.3335 1659 1
74.1667 18.321 28.9324 12895 2
71.9143 20.1511 27.9164 22613 2
74.6136 21.6517 29.2426 30808 2
72.7659 19.8745 30.6218 12506 1
19.7049 24.2792 28.9963 1930 1
21.3545 25.9943 29.4809 2818 1
22.1822 23.5864 27.79 1886 2
22.2808 23.4561 30.7008 1841 2
23.984 25.5041 29.3174 976 2
25.8678 26.49 30.9251 21001 1
26.6581 25.0643 28.5226 1889 2
30.0113 23.1797 28.7344 936 1
29.6263 25.4479 29.675 2771 1
28.0758 23.2305 30.5133 24989 1
32.9386 22.9131 28.9639 2775 2
31.8525 25.481 28.2109 1946 2
33.4555 25.3929 30.8868 2825 2
34.9984 25.7719 27.605 25028 2
35.5728 22.8421 27.2143 25027 2
35.359 23.9537 29.6986 2778 1
38.0409 24.1738 28.4191 25025 2
37.0084 23.3372 31.2796 5526 1
36.6605 26.2125 30.2427 2828 2
43.6319 23.2896 27.6874 22532 1
40.8889 23.9558 28.7944 23152 2
43.0867 25.8087 29.2453 3759 2
41.6581 23.8351 31.254 3717 1
40.2814 26.5208 27.3958 1958 2
48.599 22.6729 30.9506 2736 2
46.1801 22.3129 28.3146 4627 2
45.0186 24.0765 29.8299 21900 1
47.3477 25.0105 29.0417 2786 2
45.9443 26.1843 31.1029 3720 1
52.4286 24.3258 27.2245 2024 2
49.6386 23.4878 28.085 750 2
50.0325 26.5951 28.9649 1107 2
50.6323 24.6809 30.65 710 1
52.9376 24.3328 29.9608 21056 1
54.2149 26.2112 28.4269 42770 1
56.9365 26.5703 28.2285 40027 2
55.7911 23.6164 29.1866 30857 2
55.0004 25.9574 31.2163 1056 2
54.3951 22.8155 31.2692 2851 1
57.8577 22.4341 30.8497 12459 1
57.598 25.1457 30.7234 2028 1
59.1525 24.3675 28.8049 20098 2
61.5902 23.5713 28.3385 20104 1
61.5348 25.4964 29.9889 20201 1
62.3333 26.0963 27.364 713 2
62.5897 23.3787 30.4659 20096 1
64.2008 23.1556 28.1208 20100 2
64.3432 25.912 29.8354 19684 2
69.1528 22.8003 29.445 12867 2
66.7458 24.2985 29.2949 12414 1
69.7353 25.7395 28.5552 19196 2
68.1903 25.2992 31.3157 12419 2
66.9465 26.8302 28.449 25879 2
72.3797 25.8671 27.3723 19299 1
71.9635 22.7702 30.356 11516 1
70.8682 25.0016 30.9037 20160 1
71.7278 23.2212 27.514 22672 2
74.2369 23.866 27.4854 20157 1
73.3323 25.112 29.7467 1651 2
74.9602 23.4332 31.4555 12890 1
20.7017 29.3586 27.6888 63546 2
18.7373 27.2462 28.9145 2763 2
19.2062 29.7697 30.0688 1982 1
21.4986 28.3759 30.5697 2859 2
23.6955 30.4338 27.6792 1018 2
22.733 27.7329 28.1291 1929 1
24.8072 28.4295 30.0232 1941 2
25.4588 31.0845 29.9994 1986 1
29.1015 29.9672 27.2071 1947 2
26.4767 29.6174 28.2595 25059 1
30.1962 27.2209 27.1781 1949 1
28.1475 27.5237 29.1117 2769 2
28.253 30.6022 30.0789 2817 2
30.9821 31.2465 28.9299 3749 1
31.0126 28.5403 29.3181 2864 2
33.4726 27.5877 29.3804 24984 1
33.6324 30.3837 29.1482 1993 2
31.7129 30.9757 31.0072 20205 1
37.5904 26.9065 27.6418 1951 1
35.6547 28.2334 28.3818 24982 1
36.2121 30.6619 27.3695 4713 1