ITEM: TIMESTEP    
180000     
ITEM: NUMBER OF ATOMS  
77888     
ITEM: BOX BOUNDS pp pp pp
17.607 132.393    
18.0782 131.922    
28.0137 121.986    
ITEM: ATOMS x y z id type
19.4744 20.5991 28.525 72779 2
18.7785 19.5746 31.0421 1881 2
21.6421 22.2835 29.5681 977 2
21.9122 19.2711 30.5389 1839 2
25.2584 20.0504 31.6274 22628 1
24.4936 20.4273 29.4531 926 1
23.0531 21.2337 31.5619 1848 1
25.6284 18.5027 29.8606 23170 1
30.1052 20.0243 30.5435 20062 2
27.1724 20.9112 29.9084 1846 2
29.6941 22.3943 29.1126 1895 1
27.7661 18.178 31.696 1845 2
27.8808 18.3733 29.157 72824 1
74.8431 56.836 72.6941 27677 2
33.6931 20.5615 30.4018 43709 1
34.2295 21.9187 28.519 19151 1
34.3566 18.7676 28.2836 24988 2
32.1062 21.0771 31.9492 25026 1
31.9826 20.5579 28.3801 25063 2
34.7873 21.1801 32.2569 2726 1
32.415 18.5297 30.4731 2719 1
74.9096 53.5435 30.5637 19530 2
36.2385 20.3782 29.6237 1851 2
39.2303 21.0431 29.7184 22537 2
37.3815 21.8402 31.5464 1899 2
37.79 18.7273 31.2151 22536 2
39.6812 18.4689 29.1967 1904 1
41.0746 19.3008 31.4179 1854 2
43.9412 18.6286 32.0595 23128 2
41.7108 19.993 28.6829 43666 1
43.4229 20.5169 30.1861 21871 1
42.945 21.4412 32.2962 3665 1
39.8477 21.5447 32.3711 3657 1
45.1691 19.2339 28.866 1099 2
47.4618 20.7013 29.7362 40834 2
46.9999 18.3255 31.4512 22576 2
45.6247 20.8946 32.179 4627 2
45.0581 22.5439 29.8907 43705 2
48.1274 21.888 32.305 1908 1
65.5809 66.059 28.2502 2354 1
50.3236 19.0903 29.1561 38521 2
49.9782 21.6489 29.0393 40893 1
49.5416 19.7532 31.708 22529 2
52.7882 20.9057 29.2269 38365 2
50.9833 21.9308 31.3671 1110 2
52.9376 20.1382 31.632 22574 1
74.6167 74.2254 64.3639 9898 1
55.3587 18.6031 28.9141 21944 1
54.937 20.3645 30.711 12513 1
55.474 21.5034 28.4467 39988 2
56.8502 22.0039 31.1117 13500 1
59.9141 21.6881 28.7359 31298 2
60.3286 18.6745 31.092 19184 2
59.4623 21.8359 31.2352 31285 2
60.0399 18.907 28.5977 31004 1
57.6635 19.9154 29.5543 38509 2
64.1561 21.6023 30.9893 21892 2
61.8969 20.3727 29.6944 31021 1
63.951 19.6608 28.1944 30371 1
63.6432 18.521 31.0342 30999 2
62.6376 22.1469 28.2348 30803 1
74.978 56.2383 39.8831 21392 1
66.199 19.1793 29.4756 31023 2
69.1257 21.3666 31.8944 19245 2
67.0584 21.5722 30.1716 31293 1
69.0289 19.8444 29.371 30997 1
69.9567 18.6811 31.3461 38366 1
66.2034 20.4076 32.0813 20998 1
74.2071 19.9115 29.6545 31289 2
71.5798 20.7231 30.5171 30996 2
72.7308 18.2978 31.6485 21403 2
71.1943 18.0706 28.9342 30343 2
19.5256 22.124 31.2328 1887 1
18.494 23.3625 28.6827 1928 2
20.4139 24.8301 30.3545 1885 2
62.9013 67.4612 28.1522 18779 2
24.7962 22.7856 30.2011 25024 2
23.1997 24.4723 28.4431 25062 1
23.1344 24.7869 30.9533 1888 1
25.756 25.0799 30.7179 1945 1
25.0841 26.5933 28.6348 25061 2
22.5986 26.4963 29.4841 52493 1
26.8341 23.0087 31.7333 1884 1
27.92 24.2074 29.6597 1943 2
30.6178 25.05 31.0943 40920 2
29.5698 22.4533 32.0074 1944 2
75.0135 73.1788 34.3152 22644 2
32.182 22.92 30.1028 989 2
33.5714 25.4333 31.9096 1035 2
33.8533 24.7059 28.5117 1999 2
32.2063 26.5132 29.5004 43811 2
34.9474 23.2086 30.6945 25027 2
36.0981 25.7242 29.153 40922 1
36.9189 25.3282 31.4444 2729 2
36.8915 23.1252 28.8242 40928 2
38.4103 25.77 28.6949 43667 2
39.4359 24.0101 31.2597 3770 2
27.4345 74.9166 70.7313 25555 2
41.7336 22.6125 30.1944 40934 2
40.9662 25.5062 29.6155 1956 1
42.0061 25.4649 31.7434 2782 1
43.2021 24.778 29.9274 41801 1
43.8185 23.7026 31.865 22532 1
46.1366 25.5324 29.6198 40939 2
47.6666 25.7052 31.7275 1153 1
44.6418 26.3077 31.7476 2837 2
46.3023 23.6466 31.8961 21900 1
48.8467 23.7144 30.4973 40989 2
51.6821 23.8057 29.1831 19180 2
50.4437 26.2405 30.6313 2020 2
52.5205 26.4511 28.0869 1165 2
71.7366 74.735 42.9697 22691 1
54.0868 23.1543 30.9785 23176 2
53.4019 25.9592 30.6051 23642 1
54.8853 24.4198 28.616 40025 2
55.7117 25.4652 31.1257 40030 1
57.4195 23.3979 29.1797 38629 2
57.6961 24.2937 31.5306 23172 1
57.7382 26.2697 29.6121 18330 2
59.6702 24.7428 30.4491 20148 1
60.886 26.5991 28.8757 199 2
61.5776 25.9981 32.3152 713 2
62.04 23.7196 30.0368 19285 2
64.8281 23.7717 29.9733 18327 1
63.612 26.2356 29.9575 19229 2
64.2766 24.5096 32.3936 20106 2
69.689 22.3771 29.081 31019 2
66.2339 25.6342 30.7382 19241 1
68.9367 24.6883 31.3131 1065 2
67.1788 24.0323 29.0187 31294 2
70.3094 24.8856 28.5388 44061 2
66.8724 23.1246 32.2031 31002 2
73.5059 22.1453 31.6339 12413 2
73.0977 25.2161 28.9098 44079 1
71.8343 23.42 30.2397 12457 1
71.3753 25.8017 30.7752 30290 1
73.7569 24.9917 31.1426 43162 1
74.3078 22.8701 29.0216 39972 2
20.6307 26.6408 28.3745 970 1
19.0128 27.0326 30.2794 63548 1
19.2424 28.8647 28.5767 1933 2
21.3478 30.5735 30.5102 1071 2
18.1133 29.2816 31.3677 1936 2
21.2783 27.8307 31.3176 63546 2
22.1237 28.7875 28.2272 975 2
24.1681 26.8936 31.3659 63545 1
23.9425 29.219 29.9289 1023 2
26.3261 30.4707 31.1841 40916 1
26.4895 28.0199 31.7622 1025 2
28.5076 27.1102 29.9293 39954 2
26.5365 28.6839 29.105 986 1
28.4536 29.9294 29.7425 19240 1
30.5496 28.5594 30.1953 983 1
29.6314 27.1638 32.2554 1949 1
28.1795 74.814 30.7493 22518 2
32.9472 29.2702 29.3746 41885 2
32.1114 28.1358 32.1378 41845 2
33.19 30.535 31.7452 1033 1
34.9002 27.5317 30.5673 40926 2
39.5221 27.136 31.2087 1958 2
35.5268 30.2509 30.5095 41893 2
37.3963 28.2989 29.6033 2779 1
38.1775 29.9303 31.0168 2010 1
37.0777 28.2189 32.0612 1083 1
38.2303 30.502 28.5786 1907 2
74.8972 52.4091 36.5602 4028 2
39.4879 28.3025 28.9195 2836 1
42.5776 27.5027 30.0134 41842 2
43.163 30.5024 30.4282 43703 2
40.7194 29.8513 30.652 40975 2
45.1401 28.2029 30.0014 40985 1
46.2376 30.4401 29.433 41032 2
47.8911 27.9104 30.2894 40935 2
44.7191 29.5746 32.169 41849 2
47.6634 30.3814 32.2877 2072 2
49.1767 30.2697 29.8672 1954 1
50.6178 28.4365 28.7119 42717 1
50.5599 29.0081 31.1721 2027 1
51.6403 30.9962 29.659 1163 2
52.6348 28.236 30.1919 40996 1
54.7822 27.9066 31.7793 20144 2
54.7856 30.1237 29.7967 248 2
55.1993 27.4624 28.9292 19382 2
57.3277 29.1281 30.7664 19231 2
44.2348 18.283 43.9119 21063 2
74.6456 53.9398 34.2631 20449 2
59.5304 28.5526 29.5239 246 1
61.7974 30.1947 28.8215 2792 2
60.362 30.4822 31.1997 200 2
58.9434 30.7425 29.2155 1109 1
59.4713 27.0221 31.7116 19234 2
62.0686 28.2229 30.6276 19243 1
57.5293 28.9169 28.0448 19227 1
64.4575 28.8002 29.2091 19242 2
63.5036 30.5216 31.2875 20214 2
66.2147 26.7981 28.5656 18337 1
66.6567 28.0924 31.1921 12515 2
68.7198 27.112 29.4644 30998 2
69.7431 27.4993 31.954 19186 2
67.0152 29.47 28.9476 30833 2
70.3612 29.4891 30.153 43818 1
68.5945 30.5411 31.7785 20158 2
27.6923 74.9256 46.0775 24666 1
74.5131 27.8929 30.1606 30993 2
72.7623 30.2579 30.2583 43804 1
71.7729 27.8013 28.918 18339 2
72.4059 27.76 31.6896 18336 1
71.4709 29.8116 32.4686 19294 1
74.9422 21.5862 74.0589 27529 1
69.3661 29.1799 28.0821 44057 1
18.3318 35.0333 29.7294 1017 2
21.0817 33.3996 29.7053 1060 2
18.4557 31.8342 30.0033 63536 2
19.9319 33.0849 32.3406 1934 2
24.092 31.8486 31.0203 63681 2
23.9395 34.4429 30.0251 43702 1
22.4863 33.8733 31.9354 1069 1
23.3065 31.8822 28.3487 72814 2
26.1616 33.2316 30.2232 1070 1
26.2278 31.2015 28.6468 40917 2
28.2293 32.2327 30.5077 40965 1
28.3112 34.2589 28.8495 1031 2
30.058 33.9931 31.2001 2916 1
29.3091 31.8406 28.4479 979 1
27.9856 34.3931 31.7965 1989 1
30.8972 31.3802 30.5554 1940 2
34.8 33.8572 30.5131 24974 2
33.266 32.1515 29.6546 984 1
31.7373 34.2098 29.2549 1029 2
36.2234 32.339 28.1052 1077 2
38.7155 33.4541 29.2313 1199 2
36.9524 32.3786 31.0487 1080 1
37.5508 35.0493 31.4636 20283 2
36.4077 35.2437 28.5482 41937 2
40.7745 31.669 28.8706 42701 1
39.919 35.7047 30.3526 2002 1
41.4335 33.3562 30.7427 2004 2
43.652 32.16 28.7301 41848 2
48.0662 32.2818 30.1908 2942 1
43.9963 34.4657 29.9276 2990 2
46.642 34.7136 30.0759 2067 2
45.5049 32.3328 31.5097 43700 2
49.9774 33.7603 30.8494 237 2
52.3491 32.693 31.6541 2902 1
51.6735 33.6209 28.9417 291 1
52.5029 35.4431 30.8366 2022 2
48.3726 35.6169 31.6023 236 1
50.2778 31.3228 32.035 42715 1
49.0249 34.8888 28.2358 1211 2
56.6123 34.2262 29.5238 19334 1
54.1458 33.0042 29.7072 20251 2
55.3054 34.3206 31.5455 1208 1
54.6235 32.0597 32.1424 249 1
56.963 32.0239 30.9162 2077 2
17.5985 74.9046 39.7496 62795 1
59.1876 33.4884 28.8843 241 2
59.4399 32.8179 31.4123 19233 1
57.7177 34.7066 31.3603 19235 1
61.7819 32.9073 29.4665 1112 2
60.4849 35.2171 30.9227 2121 2
61.4547 35.5117 28.3239 1111 2
63.228 35.081 30.6094 43165 1
64.3069 31.4056 28.5386 18380 1
64.1097 32.9777 30.6498 19341 1
64.7217 34.323 28.4223 19232 2
65.9956 34.7363 31.513 20256 2
66.493 31.7953 30.75 19289 2
69.0109 31.4678 29.3215 20162 1
69.6785 34.1265 29.0039 19293 1
67.3368 34.1507 29.0037 20215 1
68.5919 33.4224 31.1253 19347 1
66.7832 32.0686 28.1545 19288 1
74.0431 32.294 29.1538 19297 1
70.9907 32.1944 30.6083 19246 2
71.7968 33.5682 28.5778 18438 1
71.1351 34.581 31.8435 19295 2
74.3989 33.0452 31.7032 19301 2
73.4244 35.0384 30.0844 43988 2
20.4623 35.4624 31.3174 63543 1
19.6333 37.3203 30.0866 63542 1
18.5716 39.126 31.4636 63318 1
21.0248 38.2749 31.9726 1979 2
48.9753 25.9195 28.2831 23205 2
74.7129 39.642 29.4219 18489 1
22.2019 39.1328 29.5411 2045 1
22.1436 36.6096 29.378 1988 2
24.7208 38.5336 30.1429 2036 2
26.1648 35.8741 30.7797 1075 2
24.5628 36.3241 28.7057 2034 1
23.1243 36.4235 31.9521 1981 2
29.4287 36.609 31.0226 1074 2
27.2757 37.2036 28.6785 41015 2
29.7022 39.4007 29.7922 1028 2
27.544 38.7483 31.4524 1122 2
30.0578 36.7822 28.4779 1027 2
34.2488 39.0048 30.0494 2829 2
32.0699 37.3738 29.6723 1079 1
33.7845 36.0821 29.2566 41936 1
32.5592 35.6999 31.6366 1997 2
31.496 38.6196 31.9156 2870 2
72.643 61.3042 74.983 27682 2
35.5104 36.7725 31.1649 1995 2
37.8448 37.4724 29.3879 41068 2
36.8782 39.1229 31.8814 2061 2
37.1358 40.0137 29.3533 41072 2
43.2211 39.0754 28.3804 1204 2
42.2637 35.9716 28.8545 41024 2
41.9364 36.2239 31.326 2944 1
40.5559 38.028 29.2412 40988 1
42.4499 38.3926 30.6961 2066 1
41.3018 39.9859 32.5405 3037 2
44.8153 36.9195 28.804 1159 1
45.2718 39.516 30.0053 41031 1
47.5357 37.5602 29.8767 330 2
44.8194 36.9791 31.4947 2995 2
46.7889 39.1402 31.8114 25017 1
44.2746 39.6153 32.1745 2111 1
49.9307 36.5089 30.3534 41035 1
51.766 36.0697 28.1396 1155 2
51.6733 38.3869 30.7992 1162 2
49.1045 38.364 31.695 1213 1
49.9353 38.4104 28.2174 40108 2
53.1986 39.1474 28.5055 18473 2
56.2691 38.3685 28.78 41085 1
55.5942 36.7258 30.9836 20297 2
54.5408 39.0525 30.9351 388 1
54.6635 36.2473 28.8255 44000 2
57.3368 39.03 31.306 18430 2
58.0088 36.4964 29.22 288 2
61.3333 38.6395 28.6687 18381 2
59.8358 37.9332 30.627 18376 1
58.4488 39.4798 28.4926 19282 2
58.3769 36.8059 32.1808 19276 1
62.3939 37.6411 31.3057 19286 2
63.7391 36.8931 29.0826 1119 1
64.7947 37.0113 31.39 20213 1
64.2668 39.0179 30.0646 44031 1
65.5202 39.2537 32.125 20260 1
68.3676 35.7019 30.5189 19339 1
66.3934 36.916 29.2788 19281 2
68.7264 38.145 29.8938 19290 1
68.087 39.6873 31.9686 163 1
67.0393 37.6141 31.6163 20208 1
70.8096 38.9042 28.7485 18383 1
70.6489 36.3894 29.4816 19349 2
71.0293 39.0206 31.4121 18437 2
72.5643 36.8958 31.4164 25899 1
73.7836 39.1067 32.0021 19352 2
72.897 37.8981 29.3066 18386 1
19.7988 39.7899 29.5461 63529 1
18.607 41.5077 30.8988 63648 1
19.7808 42.1146 28.9043 63678 1
20.7636 43.834 30.8464 63528 2
21.4063 41.3858 30.224 21093 1
21.5437 43.5677 28.0062 48570 2
23.0148 40.29 31.7658 2039 1
24.0562 41.4771 29.3219 41066 2
22.9891 43.3011 31.2698 63091 2
25.5162 41.0372 31.4027 2037 2
25.7167 43.6525 30.4352 2969 1
26.8729 40.1036 28.6927 41016 2
28.145 41.8172 30.3241 43701 2
29.7944 41.2115 32.214 25055 2
30.6721 43.5986 30.3968 2090 2
28.2757 43.7367 28.6656 42710 1
30.2794 41.9552 28.082 41883 2
33.936 40.564 32.0296 20156 2
33.5286 42.8171 29.9273 1998 2
31.8 41.0548 30.4479 41941 1
74.7224 20.0153 36.3866 12412 1
38.4297 42.3783 30.1694 1202 1
35.8434 42.0734 30.7803 2053 2
36.088 42.494 28.2103 2056 1
38.8903 41.4251 32.4789 2926 2
40.2159 40.406 29.8781 41984 2
40.1369 43.752 28.7665 3133 2
41.9915 41.9887 28.5795 1200 1
41.1259 42.8809 31.1683 1198 2
43.0523 40.8189 30.409 25047 1
43.7121 43.4983 29.8779 1251 2
44.6454 41.2864 28.5685 25049 1
46.68 43.0345 29.2809 1254 2
45.8653 41.6381 31.268 25018 2
48.2617 40.3784 29.8783 2119 2
50.8525 40.7719 29.138 290 1
49.0998 42.6541 30.4817 2113 1
51.3113 43.3537 29.8357 289 2
50.3146 40.7861 31.8102 2074 2
52.7439 41.0398 30.4631 20299 1
53.1527 42.1405 28.277 1167 1
55.4427 40.8117 29.3992 18427 2
54.2902 43.0609 30.1549 39218 1
57.0327 43.6598 30.1557 19337 2
25.1261 74.7224 72.4265 13347 2
53.437 44.6901 28.783 1307 1
54.9189 44.1373 32.2276 24949 1
57.7826 41.1984 30.2725 18378 1
60.1897 40.6033 30.7565 20206 2
59.8658 42.9654 29.8289 1255 1
61.4578 43.0411 32.0564 20298 2
43.0125 18.3272 60.6452 8264 2
62.6434 40.6225 29.9469 18379 1
62.6039 43.0088 29.9082 18479 1
64.6936 42.1516 31.3674 19338 2
64.7219 44.2804 29.8628 18435 1
64.4075 41.8296 28.282 19387 2
66.5084 40.0956 29.6332 18433 2
66.7128 42.9563 29.7017 19384 1
69.3928 40.9923 29.8096 18439 2
68.5546 43.9978 30.7697 19396 1
69.2539 43.8787 28.4175 18436 2
70.5403 43.0959 31.1754 19389 1
74.4802 41.8801 31.1602 20361 2
72.4195 40.3342 29.4948 18443 1
71.8908 41.3533 31.5265 20353 1
71.9969 42.9007 29.0731 19401 2
72.9515 44.3993 30.9399 2141 1
71.6188 71.5053 74.2168 26052 1
18.4056 44.3654 29.485 63282 2
19.0852 47.0566 30.6467 63280 1
21.2944 46.276 29.2754 53468 2
23.7414 44.6089 28.8236 63650 2
23.6711 47.2037 29.4582 2088 1
25.0544 45.9241 31.3685 2044 2
22.0451 46.2386 31.8921 63083 2
26.1533 48.5554 30.2964 63281 2
27.9967 44.4033 31.4544 2971 2
26.713 45.8331 28.7688 41064 2
29.4755 45.8948 29.4744 2049 1
27.9333 46.9976 30.9511 1131 1
28.2619 48.0557 28.8086 41062 1
30.4996 46.1538 31.5751 2046 1
30.3555 48.3582 30.2939 41946 2
34.9757 45.3305 30.6217 2051 2
32.2141 46.024 29.2946 2157 2
33.8576 48.0293 31.0186 2095 2
32.5043 45.0636 31.8655 2979 1
38.6942 72.6886 28.195 22511 2
34.5524 47.105 28.3385 40152 1
37.3157 44.6236 29.5463 41939 2
39.4617 45.1777 31.0457 2156 1
39.2418 46.9476 29.024 41124 2
36.1851 47.645 29.7341 41990 1
37.2646 47.0971 31.6845 2159 2
41.7246 45.367 30.1012 1249 1
40.8346 47.0258 31.4339 1292 1
43.8787 46.1035 30.681 2162 1
42.0869 47.6911 29.072 1293 2
42.8967 48.2611 31.975 25009 2
43.9698 45.7421 28.5189 1257 1
47.6375 44.6896 31.8416 1253 2
44.7465 48.2894 28.9038 2169 2
45.976 45.5079 29.8574 381 1
45.645 47.3214 31.5207 21219 1
47.4988 47.2376 30.1529 385 1
49.8649 47.663 28.2748 1305 2
48.9139 44.9883 29.2218 340 2
52.147 48.19 30.7941 1345 1
49.8771 46.9245 31.2702 2208 2
52.8631 45.587 31.2477 25040 2
51.3501 45.5662 28.297 2120 1
53.0072 47.3518 28.3841 1298 2
55.3581 46.1196 30.0778 1306 2
56.6559 48.1388 31.4329 21280 2
54.1305 48.0038 31.9728 3089 1
23.2514 18.2028 39.3498 10436 1
59.0996 44.4647 31.4757 25046 1
58.5709 46.4089 29.8658 1303 2
60.9095 48.4229 29.9017 2172 2
61.4807 45.499 30.3125 20338 2
62.9093 47.467 31.7303 259 1
63.6348 44.9761 31.6801 20304 1
64.1324 46.7243 29.2768 19386 2
65.3493 47.2714 31.5416 25875 1
67.1366 45.8646 29.7383 21192 2
68.1774 47.1498 31.7909 19439 2
69.1516 48.1394 29.1293 18476 2
66.4919 48.2754 29.954 25042 1
66.2828 44.7825 32.1609 21284 2
70.6592 45.8294 30.3004 19436 2
73.1755 45.5104 28.6697 18542 1
74.2094 46.698 30.6877 20313 2
71.7634 48.6173 31.0503 2268 2
72.9008 48.2239 28.7205 19445 2
17.8624 52.0716 29.3279 54461 1
21.4144 48.9112 30.5634 48858 2
19.1982 49.6512 29.8189 63274 2
20.0736 52.4622 30.9732 63060 2
17.9163 50.9397 31.936 63275 2
24.0212 49.8402 29.611 63527 1
25.7093 51.4068 28.6825 2085 2
22.4739 51.6156 28.8651 63486 1
25.3157 51.574 31.2205 63483 2
22.4519 51.3736 31.6159 63234 2
28.0707 50.509 30.1504 24951 2
29.7798 52.632 29.9178 2040 1
30.5001 50.8742 31.1668 40237 1
19.5027 18.0593 38.7715 20457 2
17.6536 38.4247 28.4168 63537 2
32.4735 50.0765 29.924 41115 1
34.1515 50.4741 31.7207 41120 1
32.6038 52.652 30.1877 2048 2
34.8981 49.6805 28.5423 41077 2
37.5611 49.1741 29.0074 2155 1
38.74 51.4918 28.9177 378 2
36.408 49.7045 31.1264 63642 1
38.1134 51.7048 31.9485 2199 2
35.8718 52.0943 30.1768 41170 2
39.2923 49.133 30.9216 1294 2
40.523 51.4988 31.4669 1336 1
41.1802 53.2735 29.6705 1339 2
41.8635 50.4479 29.5507 2200 2
43.0706 51.1759 32.3677 2242 2
43.8169 52.5739 29.5742 383 2
47.6682 49.0294 31.7069 2214 1
47.5215 49.6132 28.8294 41079 2
45.2414 50.1744 31.0572 1295 2
46.4416 52.007 29.8273 394 1
48.156 51.7215 31.9007 25836 2
48.7847 52.4941 28.6299 3092 2
50.0788 50.0211 30.3889 2213 2
52.3506 49.7953 28.4115 25001 2
50.8694 52.9263 30.7715 4065 2
52.5352 50.5521 31.2103 1301 1
54.6787 49.4155 29.7944 19428 2
53.8896 52.4282 30.0339 25885 2
56.7582 51.1359 30.5749 25890 2
53.4152 52.8915 32.4799 20340 2
58.2657 49.031 29.4818 19470 1
59.5565 50.9703 29.9945 3150 1
58.9849 49.2135 31.7524 1310 1
58.287 52.875 29.4833 1267 1
61.6866 50.3458 31.8587 20342 2
18.1095 74.7126 32.8632 62998 2
62.3233 51.5625 29.0554 19483 2
64.0753 49.4527 30.5845 18534 2
65.6631 51.388 30.4685 20397 1
63.4386 52.5453 31.4515 20392 2
39.5723 74.916 41.628 24663 1
43.2154 21.5547 28.0287 43668 1
67.8154 50.7795 29.3529 19482 2
69.4028 49.891 31.2707 1224 1
70.0422 52.6779 28.9192 19488 2
68.6704 52.7954 31.7138 20391 2
74.916 55.2895 48.2408 23147 2
74.8018 49.3209 31.423 25005 2
71.0504 50.2929 29.0932 20352 1
73.8668 50.9425 29.2944 19532 2
71.4746 51.6006 31.3103 20394 2
73.8469 51.6107 32.3019 19485 1
18.8715 54.7303 29.5102 63500 2
21.5147 54.1358 28.6253 63481 2
19.9476 55.4085 32.107 63223 2
21.0469 56.9382 29.3165 48680 2
22.5892 56.7186 31.2621 63485 1
22.1155 54.1808 31.1551 63046 1
23.9849 53.3477 29.8622 63235 1
23.9309 56.049 28.8361 63634 2
24.9069 55.3629 31.5853 63188 2
26.0861 54.3546 28.2204 2084 2
26.741 56.8045 29.8343 63479 2
27.2534 53.6524 30.45 2089 2
29.5146 56.8437 30.5327 3022 1
29.2239 54.876 28.6615 40191 2
30.2886 54.6205 31.4636 40239 2
32.1422 55.6543 29.3548 42703 2
34.5304 54.3815 30.17 41977 1
34.8547 56.9369 31.0762 428 2
32.8073 54.9683 31.9168 2980 1
31.7974 57.3468 31.6094 2982 2
75.0127 24.968 39.2739 19731 2
36.6158 55.3476 29.7742 477 1
38.186 56.0342 32.0711 3191 2
38.3423 53.707 30.0448 19545 1
39.0894 55.932 28.8702 1343 2
39.7061 53.808 31.9199 2201 1
40.9683 55.6345 30.9395 481 1
43.0084 56.8095 31.9739 2289 2
43.2865 55.1061 29.8397 1386 1
42.815 54.0449 32.1521 1388 2
45.7949 54.2883 29.6629 2240 1
47.7183 55.8342 28.37 1348 2
45.1997 55.522 31.4842 1347 1
46.9177 56.8333 30.5791 1393 1
44.7624 57.3901 29.38 1390 2
48.3593 54.3942 30.9288 1297 2
50.2597 55.0815 29.2743 19565 1
49.5003 57.167 30.5089 20463 2
51.6953 56.937 28.856 1399 1
52.1478 55.6941 31.3135 1397 2
52.4487 54.477 28.9884 1352 1
55.8364 52.899 28.4581 19473 1
54.8323 55.0797 30.3333 19469 1
54.3959 56.624 28.5641 20435 2
54.688 57.3121 31.2134 19657 1
56.9659 54.188 31.3982 25867 2
57.1709 57.204 30.1616 448 2
56.7804 54.8977 28.7346 19517 1
60.7602 53.0851 30.5928 19379 1
59.4466 55.2111 29.8836 25887 2
61.7582 57.0359 29.9317 25865 1
61.9679 55.4287 31.9866 19430 2
63.0076 54.3704 29.3036 19476 2
64.3677 56.9586 29.7109 19570 2
64.6283 55.4638 32.059 19478 2
66.0412 53.9189 30.1306 19486 2
67.0147 56.5838 29.5149 19585 1
68.5845 54.6882 29.6622 19523 1
67.5302 55.6163 31.7302 20445 1
70.9488 55.0103 30.5973 19524 2
72.541 53.2751 29.4297 20402 1
73.5458 56.0391 29.5048 20444 2
74.3148 55.6334 32.1157 20446 1
72.7746 53.9456 32.3202 20447 1
72.1234 56.9437 32.5495 19588 2
35.2172 58.6492 28.1048 41118 1
18.0916 57.7478 29.2312 63187 2
18.7137 60.2336 30.279 63040 1
19.0768 58.2878 31.8404 63185 1
21.2839 59.5415 31.0739 63183 2
20.1857 59.4767 28.6101 63438 1
21.8935 62.1537 31.9099 63233 1
23.8809 58.9707 29.9277 63433 2
25.9147 58.4047 31.8493 53648 2
25.9611 60.9451 30.2434 63042 1
23.7431 60.597 32.0471 63186 1
26.3395 59.096 28.554 63410 1
28.177 59.3704 30.5386 63272 2
29.8931 61.3053 29.3151 53557 1
30.6235 58.3449 28.8592 25023 2
30.6985 59.8891 31.2344 3012 1
28.3266 61.8796 31.2168 48774 1
33.3094 58.1552 29.3635 41981 1
33.3843 59.2558 31.4685 24941 1
32.5205 60.669 29.2228 1382 2
37.1077 57.9521 29.6631 1338 2
35.4491 60.2378 30.2326 24999 2
38.5463 60.5536 30.3041 24937 2
39.3325 58.8397 28.3547 41125 1
41.8086 57.4061 28.9276 435 2
40.1824 58.1605 30.9818 429 2
43.2414 59.0993 30.6841 1387 1
41.4042 60.3062 29.1018 479 2
40.9835 60.6939 31.5626 19607 1
45.5176 60.3778 30.8068 1445 2
47.575 58.9112 31.6314 2294 1
47.4517 58.9161 28.785 1447 2
47.0067 61.6248 28.386 1395 1
48.4886 60.7789 30.24 1444 1
52.1978 61.2943 28.8633 2342 1
50.3755 59.4622 28.7283 19569 2
52.4356 58.7306 30.7504 1398 2
50.9533 61.3429 31.1192 25035 1
49.9503 59.209 32.1386 3201 2
53.4919 61.0705 30.9365 24996 1
55.2475 59.4014 29.5294 20473 2
55.9371 61.5665 31.2037 25862 1
54.5682 61.954 28.9673 18770 1
59.7239 57.4239 31.6122 444 2
59.6863 58.0439 28.6309 19575 2
57.9296 60.226 29.3041 19618 2
60.4344 60.0005 30.3936 20476 1
57.7494 59.5884 31.7265 20477 2
62.6196 59.4544 29.6772 19572 1
64.6678 60.3299 30.5862 19520 1
62.3507 61.4702 31.4504 19623 2
63.1554 58.4092 31.983 20428 2
63.6957 61.8705 28.5252 19580 2
72.1179 18.2005 45.7646 10538 2
66.1176 58.1712 31.6436 19578 2
69.2704 57.6554 31.2533 19626 2
67.85 59.0225 29.1615 1420 2
69.5788 60.801 30.4072 20487 2
67.0612 60.6169 31.6885 20483 1
71.4699 57.5968 30.0482 20488 1
74.4957 61.352 31.6291 20497 2
72.3964 60.0242 29.3559 20485 2
74.3282 58.3105 30.8508 20489 2
71.6893 59.4941 32.2151 20537 2
17.7193 65.2159 29.9846 55588 1
20.6282 62.3993 29.6528 63425 2
20.0618 65.5143 29.1309 54635 2
19.5073 64.1402 31.837 63146 2
64.5267 18.125 48.6339 8444 2
23.7063 62.1806 29.8968 54632 2
24.8454 64.8648 29.7652 63028 2
22.2258 64.4568 30.6016 48872 1
26.5033 63.3235 31.297 63043 1
26.0798 65.4033 32.3333 63024 1
27.4154 62.8282 28.8717 63227 2
28.9658 64.7674 30.929 63176 2
27.1914 65.7746 28.7071 5799 2
30.7525 62.5593 32.0184 22153 2
40.5773 18.3102 59.2485 4636 1
30.9852 63.3552 29.0521 24954 2
34.1355 63.4405 29.3662 19499 2
32.2062 64.5639 31.0778 2284 1
32.7988 65.6633 29.1626 24853 1
34.3509 64.3447 32.2864 3948 1
33.1074 61.8965 31.5915 3025 2
35.7825 62.701 31.1534 20458 1
37.013 62.8844 28.7895 2288 2
39.1889 64.842 29.1279 2328 2
36.1955 65.2754 30.4171 3184 2
38.2371 63.6319 31.6979 1384 2
39.9149 62.5981 30.1534 2286 1
42.6998 62.7696 30.533 1439 2
40.7425 64.9527 31.5622 2331 1
41.7215 65.3059 29.5497 572 1
43.0983 64.4308 32.3751 18756 1
47.3259 64.5526 28.4292 528 2
44.978 62.3339 29.2631 1391 1
44.8739 63.0488 31.7029 1438 1
44.301 64.8939 29.2726 1442 2
47.1636 63.1464 30.6981 1443 2
45.3905 65.47 31.6296 19652 1
49.6998 63.8464 30.8423 25036 1
52.2719 63.4839 30.6674 19617 2
50.6276 65.7884 29.314 1446 2
49.6895 62.5231 28.7344 19660 2
51.1878 66.0838 31.8425 2388 2
54.7811 63.7056 30.3277 19665 1
56.1912 65.6744 31.3779 2430 2
57.2031 63.0667 29.7457 20521 2
56.2076 66.2044 28.1521 583 2
53.8106 65.8208 29.446 2381 2
61.1507 65.9886 29.6034 19670 2
58.9728 64.9889 30.5575 20522 1
59.9572 62.4462 29.7124 18729 2
61.1602 64.5925 32.0584 20566 2
59.2349 62.1792 32.0349 20525 2
18.5064 63.534 28.2771 53783 1
65.1351 62.709 31.6246 20528 2
62.3774 63.5858 30.052 25860 1
65.2753 63.8919 29.478 19625 1
63.8773 65.6328 29.7292 19624 1
64.2538 64.5453 32.0577 20575 2
66.6631 61.6379 29.4484 546 2
66.6947 65.9615 30.9781 21433 2
67.5514 64.4192 28.9002 602 1
67.7962 63.0936 31.4115 20533 1
70.2526 63.6949 30.1519 20527 2
68.9264 64.8863 32.1357 25854 1
29.6115 18.2145 43.196 10448 1
71.5942 65.3215 28.332 1461 1
71.9401 62.0145 31.2056 21396 1
73.3684 63.3925 29.4699 19679 2
72.3824 66.1483 30.6523 21693 2
71.2675 62.2245 28.2505 19632 1
18.5955 67.8794 29.3244 54678 1
20.8506 68.216 28.546 63142 1
20.8001 67.327 31.1911 63177 2
18.2514 66.9124 31.4435 50692 1
19.7777 70.3438 30.3059 54810 2
21.7009 70.3651 28.6146 63128 1
17.8748 71.2889 66.2501 10795 2
23.5527 66.2648 31.5024 55685 1
22.8385 66.9183 29.3874 63141 1
22.857 69.2998 30.6312 54677 2
24.8982 67.4107 29.9488 63140 1
25.5249 69.5779 30.1828 63124 1
27.3463 67.3634 31.2555 63144 2
29.2091 67.6972 29.2928 1383 1
28.197 69.9891 30.2921 63139 2
26.7169 68.4285 28.4704 55682 1
30.2732 69.2499 31.7796 63039 2
30.9806 67.0017 30.9206 63037 2
31.935 68.2216 28.5742 63014 2
34.4133 67.5656 29.1952 48819 1
33.4625 69.6477 30.7521 4408 2
33.8373 66.726 31.5688 5806 2
30.9641 70.3955 29.5159 4458 1
38.5458 66.5498 31.4561 2332 1
36.4979 68.3244 30.9663 2373 2
38.8004 69.4118 31.0115 2419 1
37.8598 66.9019 28.8143 4413 2
37.3439 70.8711 29.6082 3597 1
40.4949 67.6284 30.0694 1482 2
43.4619 68.696 29.774 579 1
43.0784 66.8503 31.4783 2420 2
41.9324 69.3966 31.7284 1485 1
48.0862 66.1462 31.0316 19614 2
45.7859 67.1233 29.3838 578 2
48.1453 68.3997 29.5179 1528 1
44.3532 70.2236 32.0814 1483 2
47.5254 69.8009 31.8566 3294 2
45.5848 67.7966 31.9118 25034 1
45.8019 69.6124 29.8774 3300 1
47.8713 70.728 28.9563 1535 1
50.4313 68.4309 28.2728 1488 2
49.9881 68.3267 31.0487 2338 1
52.3545 68.1321 30.4617 2427 1
52.0354 70.2679 29.5374 2431 1
54.4329 70.3856 31.2201 1533 2
55.4733 68.2572 29.8603 2425 1
54.1243 67.7551 31.6306 2384 1
57.2122 70.2904 29.6958 19667 2
53.6687 68.3136 28.2788 19710 2
60.852 69.3095 29.5597 19718 2
60.7766 67.6719 31.7377 20569 1
58.2805 67.4611 29.5727 25882 2
59.027 69.5496 31.4612 25855 1
58.6398 66.8847 31.992 20474 1
62.9509 66.7141 31.5996 20571 1
63.3019 69.9456 28.4967 21779 1
65.0068 68.0786 30.1102 20529 2
63.0124 69.2205 31.2507 21735 1
65.9176 68.4526 32.6214 19669 1
69.9564 66.2587 32.2668 23502 2
69.3634 66.3254 29.35 18736 2
67.9268 68.7825 31.1044 22589 2
69.3108 70.2175 29.5634 21740 1
67.1395 67.866 28.7779 19629 1
67.1066 70.5371 28.411 21739 2
70.6031 68.4627 30.4184 25816 1
74.8607 67.3247 32.1441 22592 2
71.6539 67.6756 28.3862 2396 1
73.333 69.0223 29.7357 2592 2
72.2654 68.2551 32.0142 25853 1
73.9311 69.9547 32.0327 21748 1
71.2679 70.137 28.607 18741 1
18.4353 74.7571 28.483 63363 2
19.7284 73.5244 31.0042 54859 2
21.0387 72.9204 28.7619 54023 2
22.0463 72.0104 31.7171 62901 2
18.0869 72.156 28.9651 63105 1
22.3038 74.7284 30.7759 63116 2
23.9044 72.0103 29.1898 63118 2
24.6691 71.1189 31.5737 63010 1
24.7294 73.502 31.9179 4505 2
17.9048 25.8903 28.145 72780 2
29.0096 20.289 28.1451 23160 1
26.5309 72.383 30.4241 48908 1
28.6588 72.1609 31.4168 4507 1
29.6271 72.6405 29.1144 3587 2
27.3775 73.7397 28.3593 3538 1
26.6107 71.194 28.2503 63125 2
31.4721 74.6738 30.372 3594 2
33.8241 74.2844 28.5971 3590 1
34.8527 71.3287 29.3413 21775 1
33.7857 72.7389 31.4968 3599 2
32.6827 72.1902 29.0929 4512 1
31.1464 71.9122 31.6398 3543 2
35.9132 70.7774 31.5196 3598 1
36.1329 73.5267 29.8176 3602 2
38.881 72.4062 31.3348 4520 2
36.4382 73.4051 32.6379 23876 2
74.9361 49.4922 63.2398 28958 2
40.7463 70.9223 29.8941 2374 2
43.0572 73.3518 28.7862 577 2
42.301 72.4525 31.2849 1532 2
40.7691 73.7317 29.4527 19699 1
43.7321 70.883 29.0761 530 1
45.598 72.2672 30.5212 1487 2
47.7731 72.8091 31.2976 2424 2
45.9142 74.5376 28.6595 37850 1
48.3979 73.1811 28.3862 633 2
49.6882 70.915 30.5427 2426 2
50.3059 73.572 30.3907 21736 1
52.2051 72.1016 31.1565 22630 1
52.6297 74.7972 31.5864 22632 1
55.2877 74.8091 31.4154 21729 1
54.507 71.101 28.8456 25821 2
53.8114 73.3172 30.0906 21526 1
56.6061 72.5112 30.9067 21476 2
55.6153 74.2868 29.0521 12850 1
58.7007 74.7393 31.3131 20618 2
59.5601 71.7847 30.3092 20619 2
60.6996 74.3613 28.9222 21788 2
58.1201 74.0807 28.9729 25814 1
61.2871 73.3188 31.7419 21730 2
62.552 71.4389 30.2491 25856 1
65.3951 70.7513 30.6965 20824 2
63.7973 73.9082 30.1487 22588 2
66.2503 73.0491 32.1164 22638 2
66.8588 73.2992 29.1452 21781 2
70.0415 72.6071 28.8066 22688 2
68.6353 71.8739 31.2986 21737 2
71.3917 71.031 31.3981 22642 2
72.5028 71.8613 29.312 21785 1
71.7777 73.9916 30.4287 25817 1
73.7409 74.0597 28.5596 20834 2
74.1203 72.6064 31.5543 21791 2
22.4206 64.2977 28.1465 63600 2
20.7222 19.0664 35.3179 2716 2
18.4017 19.5483 33.8528 59349 2
20.7255 20.4916 32.6637 25064 1
22.167 21.4971 34.8725 1841 2
17.6525 54.1245 44.9666 62746 1
23.2534 19.3044 33.3394 20009 2
24.7535 22.1541 33.2595 24990 2
23.6115 19.2833 36.3712 3701 2
25.7115 19.0396 34.1055 784 2
24.7369 22.1369 35.7325 2770 2
27.0012 21.0449 35.4242 2772 1
27.419 20.7277 32.782 2717 2
28.836 18.6481 34.7046 1847 2
29.1836 21.7523 34.8509 2776 1
30.4405 19.735 33.5869 1891 2
33.2853 18.7541 32.8827 23637 2
33.6277 20.9938 34.5817 2775 2
32.6417 18.5129 35.7417 987 1
31.275 20.6578 36.4391 3653 2
35.3029 19.2939 36.6043 3660 2
36.0194 19.3186 33.1639 20120 1
38.9768 19.3507 33.4788 21910 2
36.6121 21.2517 34.6678 1900 2
39.6036 21.7156 35.1098 3662 2
38.2608 19.1537 36.355 3663 2
43.7795 18.5596 36.2775 3667 2
42.0674 20.0026 34.2378 22582 2
40.8664 19.3709 36.3101 25771 1
44.7511 19.9093 34.3513 12875 1
45.8704 21.0042 36.4172 2791 2
47.7007 19.8688 34.1162 23264 2
48.9545 21.7528 36.0007 2736 2
50.2262 21.6135 33.5787 21895 1
51.2596 19.3978 34.3146 3670 2
49.2463 19.0336 36.1106 22528 1
52.8871 21.8491 33.7845 2785 2
57.0408 19.4167 32.5347 11602 2
53.5226 20.2104 35.6888 21898 1
55.2638 21.1787 32.6935 23127 1
55.837 21.2203 35.0522 22564 2
54.2041 18.8246 33.5896 22533 2
57.9583 21.7971 33.2651 23632 1
58.32 19.9534 35.2738 21893 2
59.511 19.9584 32.9578 20993 1
60.6549 21.6304 34.8284 20141 2
60.8145 18.3017 34.4606 22527 2
61.9569 20.5779 32.6175 38322 2
64.4926 20.2328 33.5183 12897 1
63.1113 20.1079 35.6583 25850 2
65.8752 19.0463 35.5665 31025 1
52.1755 74.5815 33.9696 23480 1
66.6429 21.2534 34.4478 11550 2
68.3863 18.9519 33.6706 30802 2
69.5847 20.8583 34.7493 1659 1
32.4644 48.3052 28.4271 2092 1
71.6727 20.1419 33.3847 22613 2
74.2188 22.0567 34.6154 30808 2
72.5155 20.1552 35.9417 12506 1
70.6278 18.3648 35.5049 12892 2
73.9609 18.2487 34.5493 12895 2
74.8392 20.1635 32.3843 30810 2
19.2991 22.2749 34.4381 20051 2
19.3182 24.0494 32.7187 1930 1
21.0924 25.5073 32.8988 2818 1
19.8251 25.115 35.2353 2809 2
21.7664 22.9845 32.5937 1886 2
22.6755 24.533 35 2820 2
24.8506 24.8254 32.9626 976 2
27.109 25.2022 34.7613 21001 1
27.7978 25.3785 32.5258 1889 2
29.2433 24.024 34.2917 2771 1