ITEM: TIMESTEP    
115000     
ITEM: NUMBER OF ATOMS  
77888     
ITEM: BOX BOUNDS pp pp pp
17.607 132.393    
18.0782 131.922    
24.2892 125.711    
ITEM: ATOMS x y z id type
19.5663 20.2537 24.9385 72779 2
22.0109 19.153 27.0986 1839 2
19.7675 20.1027 28.5921 1881 2
74.7816 72.7016 73.1569 25193 2
29.3408 18.4853 24.8732 22548 2
21.8087 21.9258 26.3336 977 2
24.6058 19.1581 26.1818 23170 1
24.0148 21.1758 27.5014 1848 1
25.8887 19.9281 28.0895 22628 1
24.7592 21.3593 25.0783 926 1
23.7901 19.2685 29.5782 20009 2
26.8889 19.3635 25.1859 72824 1
30.0775 20.6372 26.7419 20062 2
26.9445 28.9594 24.9199 986 1
27.2719 21.7066 26.1878 1846 2
74.8173 20.7437 71.1182 2610 2
33.1986 20.8341 26.5229 43709 1
32.1468 21.8567 28.3951 25026 1
31.8481 19.0433 25.4782 2719 1
34.2827 21.9029 24.7985 19151 1
33.7017 18.3339 27.5494 23637 2
35.9798 20.047 26.0223 1851 2
38.8417 21.3437 25.6519 22537 2
37.041 21.5979 28.1956 1899 2
37.9896 18.563 26.9263 22536 2
39.8319 18.8336 24.6724 1904 1
36.1045 19.2967 28.639 20120 1
40.8254 20.0011 27.1523 1854 2
43.3519 18.8639 27.9074 23128 2
42.4418 22.433 25.9571 40934 2
43.9593 21.5528 28.2855 21871 1
41.7919 22.561 28.6111 3665 1
44.7749 23.0729 24.4603 39923 1
44.5055 20.3778 25.6294 1099 2
47.4635 20.6059 25.6652 40834 2
46.0449 19.6517 28.412 22576 2
48.1938 21.8769 28.1478 1908 1
50.2742 18.7103 25.2985 38521 2
49.9216 21.6321 25.4978 40893 1
52.385 19.6574 28.0971 22574 1
51.0521 21.8023 27.948 1110 2
49.5847 19.8223 27.8929 22529 2
52.6226 20.8069 25.7485 38365 2
55.9065 18.8647 25.49 21944 1
54.6981 19.9144 27.2507 12513 1
55.5031 21.3989 24.9581 39988 2
57.0491 20.5013 27.3026 13500 1
54.367 22.5849 27.7331 23176 2
60.8194 21.5889 25.4265 31298 2
59.9542 19.4261 27.4156 19184 2
59.6573 22.0899 28.4003 31285 2
61.067 18.9724 24.9992 31004 1
58.2795 19.9501 24.9507 38509 2
65.2931 21.3645 27.2067 21892 2
62.9269 20.1303 26.3442 31021 1
65.2854 19.259 24.9722 30371 1
36.8177 29.985 24.2804 2000 1
67.7228 19.7677 26.0395 31023 2
69.5736 21.4141 28.1707 19245 2
67.2868 20.2353 28.6178 20998 1
74.8953 35.462 65.8317 28611 1
71.1879 19.9686 26.5167 30996 2
73.7101 21.431 27.5414 12413 2
73.3116 18.3675 27.692 21403 2
73.6392 74.4377 71.4222 3564 1
21.9514 24.4926 26.1285 25062 1
19.3432 25.2689 26.0658 970 1
18.6023 22.6836 26.6442 1928 2
20.6569 26.1267 28.1636 1885 2
21.4087 26.7426 25.6686 52493 1
20.2203 22.6204 28.526 1887 1
23.6591 25.779 27.3842 1888 1
24.8066 23.6081 26.2981 25024 2
26.0766 25.482 27.4595 1945 1
22.5977 23.8535 28.6923 1886 2
25.1129 26.7406 25.2398 25061 2
26.9562 23.4802 28.2485 1884 1
29.5619 22.7938 25.3082 1895 1
27.8098 24.8631 25.7274 1943 2
30.5574 26.0708 26.6326 40920 2
29.7748 23.3987 28.1274 1944 2
31.9585 23.336 25.8112 989 2
33.8762 25.8941 26.3077 1035 2
32.2362 24.948 28.2525 25060 1
34.5645 23.2328 27.6315 25027 2
36.6139 23.046 25.3677 40928 2
36.8165 25.6068 27.1261 2729 2
36.0777 25.8359 24.6377 40922 1
39.3978 24.012 26.978 3770 2
39.6045 26.5054 25.8206 2836 1
41.2804 24.8905 25.1937 1956 1
41.94 24.7926 27.6424 2782 1
43.7721 24.8407 25.7899 41801 1
43.9668 23.9017 28.5306 22532 1
46.0144 22.9987 26.9846 43705 2
46.608 25.7198 25.7156 40939 2
47.1064 24.7507 28.2595 1153 1
44.7071 26.3718 27.8647 2837 2
59.6205 74.6732 30.2493 22636 2
49.1436 23.9192 26.529 40989 2
52.2012 23.6956 25.5642 19180 2
50.7672 26.1458 26.9078 2020 2
52.2822 24.3556 29.1008 2024 2
53.4872 25.7931 27.229 23642 1
55.1695 24.577 25.5381 40025 2
55.2058 24.7133 28.6768 40030 1
57.1652 23.1949 28.6493 23172 1
75.0595 60.1773 69.6147 15026 1
57.7272 25.5385 27.2724 18330 2
57.7054 22.7196 26.0162 38629 2
60.2345 24.7877 27.834 20148 1
60.1934 24.482 25.21 199 2
62.6634 23.2086 27.2861 19285 2
65.0525 25.2414 28.2813 20106 2
64.8771 23.8502 26.1008 18327 1
62.7337 26.0766 25.9495 19229 2
65.8759 26.5982 26.1068 18337 1
63.0268 23.2755 24.6889 30803 1
70.3523 22.3785 25.1279 31019 2
67.6133 22.3097 26.4176 31293 1
69.7928 24.3803 27.2835 1065 2
67.7841 25.9535 27.6439 19241 1
67.476 24.466 25.143 31294 2
67.3302 23.2063 28.7097 31002 2
73.5094 25.2815 24.883 44079 1
72.2247 23.5733 26.7096 12457 1
72.123 26.0337 26.7104 30290 1
72.3134 25.3833 29.0316 19299 1
74.2724 24.8861 27.2486 43162 1
64.0484 74.8878 71.7624 29892 2
18.1709 27.2958 27.7976 63548 1
19.5749 28.73 26.0844 1933 2
20.6617 28.9654 28.9421 63546 2
22.0457 30.7058 26.9004 1071 2
20.6039 31.2435 24.7779 72807 1
22.6832 28.164 27.2976 63545 1
24.7169 29.5952 26.0497 1023 2
25.497 27.8703 28.5766 1025 2
57.4388 24.8682 24.3937 18326 1
26.7191 30.1553 27.5302 40916 1
22.3282 28.8007 24.4946 975 2
27.9494 27.688 26.8185 39954 2
28.7973 30.2379 25.7879 19240 1
30.6166 29.0121 26.6419 983 1
29.2075 27.7391 24.6874 41796 1
28.9383 30.1224 28.7417 1947 2
29.9563 27.6396 28.6389 1949 1
32.7676 28.0003 28.0642 41845 2
33.1665 29.7763 25.5493 41885 2
34.0221 30.6337 27.9484 1033 1
31.8246 27.5561 24.6654 43811 2
31.7665 30.3821 28.6903 2872 1
35.7485 28.5367 26.6416 40926 2
37.3797 27.6964 24.9446 2779 1
37.9188 30.2269 27.0043 2010 1
38.3619 27.8564 27.1146 1083 1
39.6969 29.2538 24.8524 1907 2
36.1413 30.5318 28.8613 4713 1
73.7263 18.1139 61.6311 1062 2
28.058 18.4854 27.4807 1845 2
40.5089 27.0693 28.3085 1958 2
42.2742 27.3728 26.2362 41842 2
43.6558 30.1121 26.5349 43703 2
40.6436 29.7905 27.5915 40975 2
43.7588 31.1721 29.29 3713 1
45.5111 28.3081 26.0177 40985 1
47.0679 30.2954 25.8258 41032 2
48.1793 27.6218 26.7443 40935 2
45.6908 29.1347 28.5657 41849 2
49.4479 30.206 26.6872 1954 1
50.8363 28.6104 25.4917 42717 1
50.8124 28.7193 28.1511 2027 1
52.119 30.8723 26.2063 1163 2
17.6876 69.9051 62.7623 10743 2
53.0499 28.215 26.779 40996 1
55.377 27.4004 27.8395 20144 2
55.2107 30.1244 26.2846 248 2
56.0351 27.5606 24.8667 19382 2
53.2193 29.8017 29.136 1164 2
53.4405 29.0109 24.3378 1105 1
58.6288 26.9367 24.7606 19227 1
60.2127 26.9966 26.412 246 1
58.014 28.815 26.6325 19231 2
61.461 29.2034 25.6414 2792 2
60.4082 30.6874 28.2223 200 2
59.2654 30.8726 25.674 1109 1
62.0261 28.213 27.8432 19243 1
64.4056 28.8336 26.0035 19242 2
63.7044 30.7312 28.0254 20214 2
68.6594 27.4778 25.1808 30998 2
70.1578 27.3957 27.8074 19186 2
67.1265 28.7019 27.5306 12515 2
69.6625 29.7303 26.4375 43818 1
66.9715 30.4311 25.0055 30833 2
69.4395 30.9465 28.8039 20158 2
74.5867 27.5715 26.3331 30993 2
71.7532 29.6549 27.4189 19294 1
73.5196 30.7745 26.2247 43804 1
71.8528 28.2369 25.0388 18339 2
72.7447 27.7196 28.2759 18336 1
74.4625 29.7131 28.6914 19300 2
18.4153 31.5879 26.2831 63536 2
18.3378 34.9279 26.8262 1017 2
21.4805 33.4101 26.026 1060 2
19.8443 32.2226 28.5067 1934 2
19.0792 33.5192 24.581 74584 1
20.7957 34.8333 28.0593 63543 1
24.649 32.1652 27.7062 63681 2
24.2248 34.6305 26.1431 43702 1
23.117 34.7749 28.1169 1069 1
22.3618 32.6836 28.7548 1980 1
26.5475 34.1633 26.5908 1070 1
28.3351 32.5612 27.1811 40965 1
28.869 34.546 25.3684 1031 2
26.7586 31.8025 25.3061 40917 2
28.0944 34.7925 28.5268 1989 1
30.2866 33.9509 28.0532 2916 1
30.8978 31.7927 26.7128 1940 2
34.8012 34.7223 26.9715 24974 2
33.4212 32.4821 26.0245 984 1
31.9324 34.6077 25.9621 1029 2
32.7781 33.2581 28.7531 1950 2
35.9807 31.9324 26.4039 41893 2
39.0284 32.4033 26.0438 1199 2
37.1718 34.9633 25.4826 41937 2
37.1249 33.6456 27.937 1080 1
39.528 34.6947 27.6826 20283 2
41.5844 31.2434 25.4481 42701 1
41.6072 34.2209 25.8285 2002 1
43.6897 32.6613 24.7175 41848 2
41.9949 32.6304 27.9519 2004 2
42.251 35.6318 28.2164 2944 1
44.3354 35.0482 26.5292 2990 2
47.85 31.8211 27.7964 2942 1
47.2873 34.5142 27.0688 2067 2
45.2907 32.3988 27.3316 43700 2
46.8931 33.2266 24.7898 197 2
50.0385 33.0178 27.0859 237 2
52.3272 35.1075 28.053 2022 2
51.8892 33.731 25.4694 291 1
52.5562 32.55 28.3644 2902 1
17.886 40.962 34.375 63086 2
41.2879 20.52 24.3787 43666 1
56.9164 32.0569 24.4176 39077 2
56.8704 34.3247 26.1857 19334 1
54.3982 33.2414 26.4156 20251 2
55.789 34.1732 28.7545 1208 1
54.8203 31.7046 28.6635 249 1
57.4286 31.8697 27.6345 2077 2
59.328 33.4562 25.9938 241 2
60.4565 34.0608 28.2268 19233 1
58.2779 34.4631 28.5656 19235 1
70.3422 18.3401 28.3928 38366 1
62.0776 32.4173 26.1987 1112 2
62.4387 34.8912 26.9607 43165 1
64.7833 31.8586 25.5508 18380 1
64.468 33.3862 27.6336 19341 1
64.6653 35.0212 25.0419 19232 2
66.292 35.0316 27.1361 19339 1
66.584 31.642 28.06 19289 2
66.6066 33.2 25.7687 19288 1
68.5349 31.84 26.3319 20162 1
68.9431 33.9252 27.47 19293 1
67.8545 35.2282 25.3289 20215 1
70.5236 35.6355 26.0314 19349 2
74.3229 32.5767 24.8787 19297 1
71.1917 32.2825 26.3637 19246 2
73.4709 34.5661 26.3263 43988 2
74.8725 32.6015 27.9524 19301 2
71.5756 34.1434 28.776 19295 2
72.408 31.4181 28.776 19296 1
20.0007 37.0987 26.4123 63542 1
21.968 38.6627 28.256 1979 2
20.9451 35.8633 24.2739 63683 1
24.7752 37.0953 25.014 2034 1
22.586 36.6792 26.3607 1988 2
24.9761 39.2944 26.546 2036 2
25.5302 36.4455 27.9861 1075 2
29.689 36.6309 27.0433 1074 2
27.4741 37.1215 25.2827 41015 2
29.8706 39.4392 25.9901 1028 2
27.4886 38.8138 27.9642 1122 2
74.9849 61.111 34.0529 21440 2
35.1355 37.6198 27.1656 2829 2
32.2723 38.1502 26.7991 1079 1
33.3527 36.6678 25.2229 41936 1
32.6093 36.4276 28.4755 1997 2
32.626 18.1928 33.6794 21878 1
38.2569 37.7226 25.6303 41068 2
37.4476 39.1315 28.31 2061 2
37.1003 36.2839 28.3182 1995 2
17.7238 70.7672 60.2274 9822 1
39.8008 35.3196 24.9028 19202 1
40.899 36.903 26.1311 40988 1
42.8011 38.8676 24.9974 1204 2
42.935 37.8773 27.458 2066 1
40.1637 39.5799 26.7257 41984 2
45.2734 39.1979 27.0684 41031 1
47.806 37.2745 27.1068 330 2
46.6713 39.1121 24.8122 286 2
45.0975 37.1473 25.6025 1159 1
47.111 36.1706 24.6461 1197 1
45.5297 36.5579 28.5493 2995 2
49.9927 35.5724 26.5659 41035 1
52.1642 36.4351 25.2856 1155 2
51.0844 37.585 27.8397 1162 2
49.5675 37.8549 24.8821 40108 2
50.5362 39.6472 26.3203 290 1
53.4917 39.2687 26.7075 18473 2
55.0364 36.3627 26.7997 20297 2
55.4784 38.3622 28.451 388 1
42.2887 29.2268 24.3548 1897 1
57.2044 39.0825 26.6217 18430 2
57.5699 36.6257 27.6969 19276 1
60.1996 38.8335 24.9982 18381 2
60.1563 36.2728 26.5879 2121 2
59.5324 38.506 27.8661 18376 1
57.6802 36.7288 24.988 288 2
62.5647 37.131 25.7663 1119 1
62.3131 38.9438 27.846 19286 2
64.2828 36.8765 27.4617 20213 1
65.3664 39.0445 27.974 20260 1
64.2383 39.173 25.6925 44031 1
66.2644 37.6474 25.8207 19281 2
66.4707 36.9756 28.491 20208 1
68.9168 37.5012 26.1542 19290 1
67.8199 39.0287 27.667 163 1
69.2329 36.2974 28.7357 19291 2
70.7979 38.1658 24.7075 18383 1
70.9361 38.7071 27.3559 18437 2
72.1847 36.4867 27.918 25899 1
73.9699 38.6479 28.0977 19352 2
72.9844 37.5083 25.906 18386 1
74.9789 39.2569 25.563 18489 1
72.5157 39.883 25.7063 18443 1
19.7057 40.1144 26.6154 63537 2
19.0478 42.7532 27.8135 63648 1
20.1638 42.7583 25.7502 63678 1
21.1588 41.7852 28.3408 63529 1
21.1242 44.5822 27.5171 63528 2
22.5212 40.0859 26.0368 2045 1
23.4644 41.0019 28.1906 2039 1
22.3472 42.4529 26.5492 21093 1
24.9046 42.058 25.4983 41066 2
24.1605 43.7521 28.295 63091 2
26.3748 41.6679 28.0329 2037 2
26.4391 44.1083 26.891 2969 1
27.0914 40.0235 24.7207 41016 2
28.2501 42.2853 25.9322 43701 2
29.7483 41.4477 28.5052 25055 2
30.955 41.7976 24.679 41883 2
34.8263 40.0981 26.2225 1998 2
30.9155 43.5976 26.9856 2090 2
32.0292 40.6189 26.8647 41941 1
33.7825 42.9198 26.3198 2051 2
37.6374 40.4485 25.5054 41072 2
38.3196 41.9243 27.9534 1202 1
35.7718 42.1998 24.6825 2056 1
36.9411 43.6734 26.7012 41939 2
35.6332 41.5678 28.3701 2053 2
39.823 42.7297 25.7688 3133 2
42.1902 41.3931 25.131 1200 1
41.079 42.0161 28.2305 1198 2
43.0493 40.2947 27.2958 25047 1
43.5285 43.3489 26.9566 1251 2
44.7969 40.9782 25.3692 25049 1
46.5567 43.0779 25.8605 1254 2
48.0446 40.3054 26.9797 2119 2
45.6223 41.5328 28.341 25018 2
49.0974 41.7909 24.7894 41038 2
49.3668 42.5172 27.2613 2113 1
51.8616 42.3472 26.2416 289 2
50.7704 40.5479 28.5865 2074 2
54.3233 43.8181 25.5193 1307 1
55.2023 41.2143 25.7583 18427 2
55.0914 43.1483 27.6349 39218 1
53.314 41.4751 28.2741 20299 1
57.1267 44.0655 24.6447 1350 2
58.6292 41.3968 24.6246 19282 2
57.6141 42.2877 27.0779 19337 2
60.2213 41.0601 27.0864 20206 2
59.7079 43.633 26.201 1255 1
61.9654 43.6857 27.9924 20298 2
58.392 40.4384 28.8151 18378 1
61.8204 42.9192 25.1882 18479 1
62.2111 40.6214 25.4906 18379 1
64.325 41.625 27.4073 19338 2
63.9327 44.0447 26.1668 18435 1
66.1661 43.3455 25.619 19384 1
66.6414 40.7224 25.7454 18433 2
69.6133 40.6506 26.0534 18439 2
68.2669 42.928 26.8115 19396 1
69.9535 41.8885 28.4417 19340 1
70.4222 43.6967 26.4386 19389 1
67.1464 41.5879 28.6606 20305 2
71.9723 41.5979 27.1777 20353 1
74.4849 41.5307 27.3442 20361 2
71.8855 42.7249 24.6004 19401 2
72.9652 43.859 26.8803 2141 1
71.7482 73.0403 72.997 15179 2
18.5216 45.0381 26.0518 63282 2
18.5506 47.3065 27.7481 63280 1
21.5268 47.173 26.1185 53468 2
20.6104 46.917 28.5708 48662 1
67.4004 74.9238 64.0844 27998 2
24.3975 45.6409 25.721 63650 2
24.3573 48.0448 26.8953 2088 1
25.5671 48.6893 24.7227 41060 2
25.8042 46.3519 28.7452 2044 2
28.4555 44.4099 28.4885 2971 2
27.3441 46.7522 25.7691 41064 2
29.5947 45.7525 26.2261 2049 1
28.5175 46.9801 28.0556 1131 1
30.7998 46.1579 28.2172 2046 1
30.157 48.6338 26.5196 41946 2
32.6254 45.7427 26.2401 2157 2
32.2342 48.0596 28.0405 2922 1
34.5501 48.28 26.9432 2095 2
35.0994 45.4115 27.54 3952 1
33.1702 46.2427 28.9494 2979 1
58.149 75.0613 62.3746 13309 1
74.8003 23.8819 38.9537 1520 1
39.1634 44.6831 28.2025 2156 1
39.0479 45.88 25.8058 41124 2
36.2911 46.2383 25.6003 41990 1
37.4171 46.9542 27.8873 2159 2
37.2243 48.6127 25.1076 2155 1
41.8852 44.0777 24.6225 41075 1
41.2487 44.74 27.0069 1249 1
41.7484 46.7062 24.8804 1293 2
40.8977 46.9212 27.9686 1292 1
43.1352 46.0597 27.1398 2162 1
44.0051 45.2161 25.0916 1257 1
47.8357 44.1916 28.3592 1253 2
44.5503 47.8986 25.6882 2169 2
45.7743 45.2974 26.7227 381 1
45.8832 47.2339 28.0232 21219 1
47.7639 46.6834 26.5836 385 1
47.9992 48.23 28.4359 2214 1
52.1933 44.9049 24.7241 2120 1
52.9432 44.9106 27.3722 25040 2
49.7741 44.799 25.7487 340 2
52.2366 47.1892 25.892 1345 1
52.2208 47.4497 28.4888 1302 1
49.8679 46.0794 28.6569 2208 2
56.1558 45.6187 26.9404 1306 2
54.3727 46.2885 25.1537 1264 1
54.3295 48.5102 27.1186 19428 2
56.1103 48.3663 25.1124 19426 2
57.3775 48.1654 27.9081 21280 2
59.0388 45.4145 27.8699 1303 2
58.9293 46.6433 24.9116 20346 2
61.8641 46.5161 28.5717 259 1
60.655 48.4122 27.1809 2172 2
61.8816 46.0687 26.0059 20338 2
63.8927 45.6923 28.0643 20304 1
65.2019 46.433 25.7491 19386 2
62.8921 48.3563 25.1014 1274 1
63.7939 48.5463 27.6925 18534 2
66.3177 47.3949 27.8713 25875 1
66.2531 44.4736 27.9449 21284 2
68.4258 45.8621 26.1198 21192 2
68.907 47.9045 28.3214 19439 2
69.8981 48.7668 24.912 18476 2
67.5313 48.7409 26.2362 25042 1
70.4987 45.0103 24.2571 19395 1
71.0013 46.4659 26.7452 19436 2
72.7791 45.3206 25.0384 18542 1
73.4875 48.5553 25.6267 19445 2
74.4998 46.3421 26.9175 20313 2
19.5423 49.2386 26.1924 63274 2
18.0858 52.3569 25.9715 54461 1
20.3984 51.9235 24.9233 63632 2
21.8593 49.7495 28.1447 48858 2
20.6175 52.8871 27.846 63060 2
18.6926 50.9351 28.1716 63275 2
24.5031 50.5675 27.234 63527 1
22.7258 49.9002 25.096 48669 2
26.061 51.5783 25.169 2085 2
22.6655 52.0644 26.5502 63486 1
26.3149 52.0024 28.7322 63483 2
74.818 55.9638 33.4996 21348 2
26.9839 49.1189 27.7223 63281 2
27.9857 49.4014 25.1996 41062 1
28.5529 51.3488 26.9659 24951 2
30.5896 51.9506 25.2464 2040 1
32.4345 50.1335 26.0157 41115 1
31.1884 51.0556 27.5907 40237 1
34.5847 51.1882 27.0844 41120 1
33.0925 52.8344 25.8759 2048 2
31.4395 18.4996 52.8898 7307 2
32.8903 53.1548 29.1442 41114 2
36.864 52.0152 26.0196 378 2
36.6558 49.451 27.148 63642 1
38.635 50.8283 28.1298 1336 1
39.523 48.815 26.5361 1294 2
40.7408 51.6699 26.8423 1339 2
42.555 49.3421 26.9255 2200 2
43.1079 52.8083 27.6496 1388 2
42.0731 53.1115 24.6714 431 2
47.2404 49.1268 25.7768 41079 2
44.6089 51.2142 25.3846 383 2
45.1064 49.7428 28.0213 1295 2
47.1528 51.6395 27.1046 394 1
50.0715 48.8105 26.9771 2213 2
48.7036 52.0809 25.214 3092 2
52.1068 50.6253 26.0897 25001 2
49.906 51.5114 28.2346 4065 2
52.3949 49.7548 28.5383 1301 1
55.3703 51.3358 26.3413 1268 2
53.0497 52.599 28.088 25885 2
74.7896 67.2692 51.1968 8027 2
57.7106 50.8893 27.619 1310 1
58.5967 49.3795 25.901 19470 1
59.724 51.8199 26.1545 3150 1
57.5821 53.208 26.3711 1267 1
62.2749 51.192 26.0612 19483 2
64.8854 51.0397 26.902 20397 1
64.9882 52.3336 24.8327 18526 1
65.3734 49.4543 24.9555 20344 2
67.5542 51.5566 25.7664 19482 2
69.1859 50.3191 27.3455 1224 1
66.6198 50.0487 28.4461 20351 2
68.1308 52.7588 28.5538 20391 2
70.6945 51.8382 25.6714 19488 2
74.4872 49.1071 28.6103 25005 2
71.5724 49.3476 27.6159 2268 2
73.6177 51.3533 26.7074 19532 2
71.0382 51.9535 28.7958 20394 2
17.8635 56.3317 28.1758 50587 1
18.9965 55.0997 25.9624 63500 2
21.086 57.2494 26.8093 48680 2
22.0407 54.6974 25.4507 63481 2
20.567 75.0809 73.0041 29563 1
24.6198 53.4858 26.4725 63235 1
24.1767 56.5814 25.5972 63634 2
22.5198 55.0707 27.9222 63046 1
25.339 55.2419 28.1525 63188 2
23.4056 57.2477 28.0486 63485 1
62.7281 18.192 27.6994 31001 1
27.1983 57.1693 26.034 63479 2
27.4277 54.0466 26.6694 2089 2
29.9489 56.8791 26.5722 3022 1
30.426 54.1633 27.3668 40239 2
29.1346 54.8263 24.7171 40191 2
28.4371 56.8756 28.7049 2195 2
31.9765 55.8709 24.932 42703 2
33.4104 55.0136 27.3737 41977 1
35.1407 54.9868 25.3398 41126 2
32.0967 57.2855 28.075 2982 2
35.5679 53.7676 28.137 41170 2
37.5924 54.9032 26.338 477 1
36.0717 56.5985 27.8993 376 2
39.2902 53.4761 25.6341 25067 1
39.3266 56.5061 27.5126 3191 2
38.5289 53.4441 28.4872 2199 2
41.2165 54.7537 26.5657 19545 1
43.2854 55.9493 28.5748 2289 2
42.0688 56.7178 26.031 481 1
41.0578 54.1989 28.781 2201 1
39.909 55.7888 24.5191 1343 2
45.3303 52.9287 28.3956 1389 2
43.8256 54.9688 25.9284 1386 1
45.8048 53.4052 25.9793 2240 1
47.5034 55.4454 25.0578 1348 2
45.6831 55.5993 27.6215 1347 1
45.1123 57.3536 25.7243 1390 2
47.5053 57.0797 27.4633 1393 1
48.127 54.2664 27.5912 1297 2
50.9417 53.478 25.9051 19565 1
50.0601 56.0983 26.6886 20463 2
52.2639 55.4114 25.2793 1399 1
50.7394 53.9072 28.2655 1394 1
53.0067 55.4767 27.9932 1397 2
55.3047 54.2788 27.1844 19469 1
54.6079 56.1809 25.0736 20435 2
53.3759 53.4164 25.6128 1352 1
57.1779 55.5328 25.4988 19517 1
55.5403 56.6815 27.5308 19657 1
55.7186 53.4337 24.7108 19473 1
59.4569 53.2362 28.1707 19379 1
59.8625 54.6705 25.6347 20390 2
58.2443 55.9074 27.8301 25887 2
61.149 56.7087 26.7383 25865 1
59.0359 57.1112 25.5651 18630 1
62.179 53.8581 27.4426 19476 2
65.2747 53.6664 27.2719 19486 2
63.8603 56.3699 26.3307 19570 2
63.009 54.068 24.4869 18633 2
65.9842 54.816 24.6248 19581 2
67.4815 55.0117 26.8643 19585 1
70.2699 54.4733 27.0728 19524 2
68.9875 56.6319 24.9871 19586 2
68.7426 57.2193 28.1405 19626 2
68.7926 53.8968 25.0323 19523 1
73.0773 53.6573 28.3494 20447 1
72.893 53.8077 25.963 20402 1
73.4386 56.4606 26.0131 20444 2
70.8546 57.1926 26.6768 20488 1
74.412 55.5752 28.3138 20446 1
17.9325 57.9347 26.1568 63187 2
21.8282 59.3725 25.5898 63438 1
19.7119 60.0012 26.7843 63040 1
50.1696 18.0359 51.5807 7697 2
21.9927 60.0409 28.0818 63183 2
17.8112 59.4931 42.3984 57312 1
24.3566 59.7152 26.2001 63433 2
25.9073 58.5956 28.5711 53648 2
26.5151 61.0116 27.4424 63042 1
28.9543 59.578 27.303 63272 2
27.1377 59.8688 25.4739 63410 1
29.2543 60.6998 24.5779 53557 1
34.1952 57.8693 25.8252 428 2
31.357 60.3286 28.161 3012 1
31.255 59.0309 25.6323 25023 2
33.8041 59.5382 27.8218 24941 1
32.8307 60.9582 25.7507 1382 2
38.2109 59.9469 24.4857 426 1
37.2241 57.3668 25.2084 1338 2
35.77 60.224 25.9646 24999 2
38.0598 59.3334 27.4785 1385 2
40.782 59.3583 25.9167 429 2
41.0804 58.1209 28.197 2333 1
43.1597 60.8346 26.143 19607 1
43.2639 58.6233 27.2833 1387 1
41.0221 60.7904 28.6027 1436 2
19.4684 18.1234 57.1481 62509 2
45.9513 60.3495 26.5348 1445 2
48.3443 58.5174 25.5692 1447 2
48.3396 61.2745 26.2861 1444 1
47.8766 59.3009 28.3374 2294 1
51.5764 57.8311 25.2259 491 1
50.7116 60.0894 26.0421 19569 2
52.3903 61.494 24.5651 2342 1
52.1269 60.4765 28.6142 25035 1
53.0597 58.2165 27.2607 1398 2
54.0689 59.1544 24.4431 20473 2
56.8575 58.8742 26.2641 448 2
53.4852 60.7637 26.6829 24996 1
54.9246 59.1359 28.8241 20470 2
55.7399 61.0276 27.1831 25862 1
55.1507 61.5967 25.093 18770 1
58.1391 61.3086 26.1704 19618 2
59.621 58.7134 27.5526 444 2
60.8427 61.1291 26.87 20476 1
59.6565 59.4387 24.5585 19575 2
62.1211 59.0423 26.183 19572 1
64.389 59.0872 27.0588 19520 1
63.1458 61.4013 25.8015 19580 2
62.9396 61.0446 28.6887 19623 2
62.7189 58.0322 28.7148 20428 2
65.5241 61.2071 28.7677 20528 2
65.7998 57.9531 29.1375 19578 2
66.2145 60.8491 25.8676 546 2
66.6545 57.712 26.3637 1420 2
69.1663 59.7472 26.213 20487 2
67.4265 59.7198 28.0461 20483 1
69.0448 61.863 28.8019 20492 2
74.29 61.081 27.6601 20497 2
72.2118 59.593 25.6607 20485 2
73.7114 58.2637 28.3574 20489 2
71.3417 61.5926 27.3782 21396 1
71.1141 59.3115 28.8314 20537 2
71.0088 61.6039 24.6194 19632 1
21.0071 62.2026 25.8096 63425 2
20.6391 65.7928 25.8518 54635 2
18.2198 65.4575 26.4699 55588 1
19.0822 63.6477 25.0743 53783 1
20.0514 64.1809 28.2776 63146 2
17.8389 62.1884 27.0348 55544 2
24.4808 62.6691 26.8019 54632 2
23.019 64.4865 24.3818 63600 2
25.5302 65.4685 27.0685 63028 2
22.7217 64.5809 27.0666 48872 1
22.2965 62.5669 28.5062 63233 1
17.6811 29.2135 43.6016 4690 1
28.9083 62.0523 28.1478 48774 1
27.5427 62.678 25.7639 63227 2
27.7453 65.5045 25.0804 5799 2
29.1965 64.7682 27.5373 63176 2
26.9751 63.3855 28.2736 63043 1
30.583 62.623 26.1871 24954 2
30.6786 65.2312 24.6308 5309 2
34.2023 62.3984 27.8071 3025 2
33.675 63.8271 25.2308 19499 2
32.3037 64.7004 27.2111 2284 1
36.9287 61.9082 27.7116 20458 1
36.7477 62.75 25.1818 2288 2
38.698 65.4034 25.499 2328 2
36.2706 64.6249 27.3441 3184 2
39.181 63.6294 27.9718 1384 2
39.413 61.9076 25.9132 24937 2
35.6296 66.0903 24.6627 24997 2
38.2548 66.4538 28.0407 2332 1
41.9387 62.0689 24.4928 25906 1
42.2011 63.2331 27.0119 1439 2
40.7431 65.8108 28.0801 2331 1
41.8181 65.7744 26.0146 572 1
40.6775 64.0313 24.601 2286 1
44.6832 65.4972 26.2419 1442 2
44.6602 62.7056 25.8291 1391 1
47.1082 63.6529 26.6378 1443 2
44.8811 63.759 28.0818 1438 1
45.2927 66.0534 28.6828 19652 1
46.9929 66.2439 24.8355 525 1
17.628 20.0821 27.1076 20053 1
49.6212 66.0819 25.5392 1446 2
49.8277 62.9956 24.9173 19660 2
49.5978 63.9165 27.2956 25036 1
52.5399 65.7769 25.8341 2381 2
52.0993 62.9284 27.3275 19617 2
51.1633 65.674 28.5474 2388 2
49.4395 61.5805 28.771 2387 2
54.5996 63.4999 26.7166 19665 1
56.5984 63.2951 27.9599 20518 1
53.7392 64.9222 28.3657 1490 1
57.3005 64.0059 25.587 20521 2
28.3128 18.2698 52.9097 6454 2
60.1748 65.6088 26.3175 19670 2
57.5568 65.6376 27.4916 20522 1
59.2878 63.2703 28.2866 20525 2
60.5557 62.8697 24.7701 18729 2
61.8166 63.3272 27.3029 25860 1
64.8308 63.4241 26.5437 19625 1
62.9169 64.3529 25.1732 1455 1
65.0546 65.8327 25.196 2354 1
63.0251 65.6243 27.1673 19624 1
66.2142 65.7137 27.7544 21433 2
67.0599 64.2162 25.3591 602 1
67.0653 62.8752 27.1956 20533 1
69.543 63.2205 26.0709 20527 2
68.7288 64.7876 28.4803 25854 1
68.6252 66.4601 26.0805 18736 2
69.2633 66.2173 29.2428 23502 2
72.9238 63.1032 25.7242 19679 2
71.8046 65.9853 27.0792 21693 2
74.5985 65.2295 26.7919 22590 1
70.8506 63.7862 28.4169 19639 1
73.5445 63.8914 28.8107 22549 2
70.7748 65.1826 24.7432 1461 1
52.7116 26.5856 24.5952 1165 2
19.0001 68.0629 26.4178 54678 1
19.2043 70.1816 24.5813 54856 2
21.4337 68.5041 25.5167 63142 1
19.9213 70.2511 27.5026 54810 2
21.0162 67.4237 28.3211 63177 2
18.2693 66.9036 28.382 50692 1
23.397 66.8199 26.0324 63141 1
23.1347 69.2574 27.5761 54677 2
25.2347 68.185 26.5258 63140 1
24.0067 69.5824 24.3668 48693 2
25.7511 70.5104 26.7799 63124 1
23.7213 66.7384 28.3293 55685 1
27.9007 67.8078 27.2941 63144 2
27.0377 69.101 25.1944 55682 1
29.9147 70.3335 26.1859 63139 2
29.3016 67.8102 25.0383 1383 1
31.0431 67.0433 27.1441 63037 2
33.0494 66.5109 25.1916 24853 1
32.0973 68.7262 24.7415 63014 2
34.335 68.5226 26.0521 48819 1
32.732 69.6179 27.8444 4408 2
34.1576 66.9594 27.9852 5806 2
35.255 70.2784 27.317 3598 1
36.8384 68.0267 26.4854 2373 2
38.3987 69.9844 24.6525 4204 2
39.006 70.1825 27.3879 2419 1
40.1813 68.0049 26.4011 1482 2
42.8956 69.2506 26.3386 579 1
41.8567 69.9993 28.2834 1485 1
42.9946 67.3565 28.1524 2420 2
47.8524 66.2583 28.0432 19614 2
45.635 68.3492 26.5707 578 2
48.1823 68.4925 25.8624 1528 1
48.1246 69.5475 28.3247 3294 2
44.6273 70.4884 28.6331 1483 2
49.9465 67.8717 27.5375 2338 1
51.0534 69.2401 25.5612 1488 2
52.3718 67.7589 27.4312 2427 1
21.8513 44.5387 24.6143 48570 2
53.9371 68.4145 24.6298 19710 2
55.2029 66.5471 26.7034 2430 2
54.1606 69.7936 27.4886 1533 2
56.3187 69.4317 26.1707 2425 1
56.9212 68.5791 28.7464 2439 2
54.2353 67.6006 29.0464 2384 1
60.9662 69.1157 25.7097 19718 2
59.2908 67.5481 28.0492 20569 1
58.7434 70.0006 27.3282 25855 1
58.1396 67.7169 25.5604 25882 2
61.829 67.6806 27.6606 20571 1
62.6349 66.8451 24.8865 18779 2
64.3477 68.1517 26.7252 20529 2
62.9909 69.8094 28.1643 21735 1
66.5375 68.2653 24.8198 21739 2
70.2914 68.6072 27.0086 25816 1
68.9865 69.3018 25.1286 18741 1
67.6289 68.6074 27.7101 22589 2
70.8316 67.801 24.8584 2396 1
73.0042 68.6781 26.0297 2592 2
71.1448 70.4447 25.1596 21785 1
71.7322 68.0124 28.5481 25853 1
73.8315 69.6099 28.6485 21748 1
74.3533 67.0336 28.9468 22592 2
29.6125 44.2078 24.1888 42710 1
18.9619 73.2949 27.7175 54859 2
18.6138 74.2756 24.9024 63363 2
22.06 70.8443 25.6654 63128 1
21.667 73.7255 26.3635 63116 2
68.9968 18.1106 49.261 7630 1
24.3182 72.5709 24.6663 63118 2
23.7313 72.0294 27.1006 63010 1
25.8717 73.0179 27.1244 48908 1
24.2136 74.6715 28.4276 4505 2
29.7988 74.604 42.1748 7254 2
26.7108 74.5994 24.7286 3538 1
28.5945 73.4939 27.7245 4507 1
27.7393 72.3349 25.6051 63125 2
30.6851 73.5425 25.7412 3587 2
27.6317 71.0287 28.4149 4452 2
31.0685 72.3481 28.5559 3543 2
34.7685 72.2845 26.0117 21775 1
32.4243 71.754 26.1813 4458 1
33.2618 74.1998 27.7243 3599 2
33.3356 73.7411 24.8907 4512 1
34.0205 71.9209 28.448 3544 1
38.7322 73.2705 24.7728 22511 2
37.1787 71.6193 26.4022 3597 1
39.3497 72.9465 27.8273 4520 2
36.087 74.7432 25.3041 3602 2
36.2244 73.6386 28.1431 23876 2
44.4015 71.1428 26.0299 530 1
43.099 73.1405 24.6373 577 2
41.0274 71.3572 25.8862 2374 2
42.8006 72.7797 27.7703 1532 2
40.967 74.2227 25.9855 19699 1
46.8511 70.8957 26.0065 3300 1
45.897 63.9793 24.216 19616 1
45.8021 73.3796 25.8585 1487 2
47.0001 72.4905 28.2094 2424 2
48.5234 74.7459 26.4538 1531 2
49.7112 71.6785 26.6591 2426 2
52.7172 71.4608 25.6483 2431 1
51.431 73.6946 26.7418 21736 1
53.1522 74.2631 24.6586 22631 2
52.2806 71.8684 27.9728 22630 1
54.0714 73.0442 26.8598 21526 1
55.1681 71.4394 24.7673 25821 2
55.694 74.4091 28.2461 21729 1
56.7581 71.8872 27.3088 21476 2
55.6194 74.4677 25.2848 12850 1
57.7065 73.3896 24.9579 2432 1
58.3869 70.8015 24.7043 19667 2
58.2977 74.4545 27.2943 20618 2
60.5869 71.8616 26.9545 20619 2
60.3237 73.9068 24.7706 21788 2
63.0295 70.8391 26.0781 25856 1
65.6994 70.9284 26.6102 20824 2
63.4598 73.6254 26.2765 22588 2
64.5159 71.5451 28.7435 25778 1
63.9872 74.0798 28.8269 23542 1
68.6432 71.3972 26.9717 21737 2
66.6696 73.6433 25.4156 21781 2
69.0026 74.4907 27.019 21787 2
66.5878 73.5541 28.5193 22638 2
67.3406 71.0168 24.5535 21740 1
69.9131 72.8264 24.6659 22688 2
71.4389 71.0328 27.646 22642 2
71.4432 73.7611 27.3871 25817 1
73.1656 72.4876 25.6583 20834 2
73.9411 72.3314 28.5301 21791 2
21.353 19.3106 31.4036 2716 2
19.8208 22.0428 31.3078 20051 2
17.9822 19.0998 31.061 59349 2
22.0097 21.2678 29.2658 25064 1
25.0811 22.1773 29.5835 24990 2
24.1908 20.647 32.4253 3701 2
26.5192 18.4993 30.2467 784 2
26.7559 18.71 33.3513 3652 2
26.9231 20.9929 31.6519 2772 1
28.2025 21.0636 29.1361 2717 2
29.2434 19.3081 31.4421 1847 2
30.6798 21.6553 30.4105 936 1
28.9676 21.864 31.8712 2776 1
34.3008 20.6243 28.7482 2726 1
31.5192 19.4285 29.2908 1891 2
33.5521 21.0017 30.8537 987 1
31.7885 20.2687 32.6285 3653 2
34.4811 22.3801 33.0464 1948 2
18.0239 57.5092 55.1473 9556 2
35.0578 19.1988 32.9725 3660 2
38.8422 19.3603 29.5379 21910 2
36.319 20.989 30.9849 1900 2
38.4275 19.2987 32.7646 3663 2
39.2132 21.7632 31.4331 3662 2
39.6514 21.8134 28.6921 3657 1
36.7441 18.299 30.9493 3659 1
41.727 20.2766 29.9967 22582 2
41.3161 20.364 32.6725 25771 1
43.7236 19.0147 32.7681 3667 2
44.3926 20.2155 30.427 12875 1
47.9343 20.0031 30.6235 23264 2
45.9693 21.7482 32.8326 2791 2
46.9116 18.7444 33.0811 21060 2
46.1116 22.3731 29.9405 4627 2
48.802 22.1302 32.7025 2736 2
50.4397 21.4134 30.5933 21895 1
51.0294 18.8129 30.5074 3670 2
49.7036 19.3095 32.6953 22528 1
51.2496 21.3309 33.2212 22570 2
53.2081 21.3088 30.3442 2785 2
53.1574 19.7721 32.3613 21898 1
55.9448 20.8742 29.3018 23127 1
55.7366 20.4249 31.9787 22564 2
54.3976 18.4834 29.5199 22533 2
54.1522 22.2426 32.7338 2851 1
61.669 18.7044 31.7284 22527 2
57.6819 18.4739 29.0881 11602 2
57.9575 21.4358 30.3972 23632 1
58.467 18.9292 32.2217 21893 2
59.8091 19.8596 30.0471 20993 1
60.6066 21.5418 31.7698 20141 2
58.0846 22.3004 32.5022 12459 1
62.37 20.7584 29.0584 38322 2
64.9778 20.1681 29.5015 12897 1
64.0122 20.4232 32.0214 25850 2
65.421 18.4727 33.2059 31025 1
66.7673 21.1856 31.2073 11550 2
69.065 19.4516 30.4061 30802 2
70.5809 20.4646 32.1963 1659 1
67.7146 22.3216 33.4218 12415 1
68.1046 19.3337 33.1784 30814 2
72.2162 19.9642 29.8074 22613 2
74.6939 21.3417 30.6333 30808 2
72.8913 19.7648 32.26 12506 1
74.7907 40.8863 48.5416 24820 1
19.7552 24.3655 30.0644 1930 1
21.8513 25.5494 30.481 2818 1
20.1477 24.8795 32.7748 2809 2
18.8761 26.9759 30.4171 2763 2
18.0045 22.9399 33.9187 2758 1
22.5807 22.7446 31.5005 1841 2
24.9243 25.3174 29.9235 976 2
25.5841 23.3873 32.4394 2770 2
23.3053 25.2525 32.5978 2820 2
28.1075 25.7855 29.1117 1889 2
26.8456 25.8396 31.5653 21001 1
29.5799 23.9703 30.8178 2771 1
27.3888 23.3585 30.4912 24989 1
29.1501 26.111 32.0808 2764 1
28.2834 23.9999 33.3638 2875 2
31.3131 23.0843 33.0645 2724 2
31.3024 26.0537 30.4681 1946 2
32.4908 23.5202 30.4945 2775 2
34.1238 25.3462 32.1862 2825 2