ITEM: TIMESTEP    
105000     
ITEM: NUMBER OF ATOMS  
77888     
ITEM: BOX BOUNDS pp pp pp
17.607 132.393    
18.0782 131.922    
23.7162 126.284    
ITEM: ATOMS x y z id type
19.45 20.8306 24.343 72779 2
21.8241 21.2938 26.2585 977 2
21.006 18.4851 25.8124 1839 2
17.7536 20.8619 26.3593 20053 1
23.9496 19.7471 25.4468 23170 1
24.7095 21.6161 26.686 1848 1
25.7598 19.538 27.1643 22628 1
24.7312 21.5074 24.0072 926 1
26.5716 20.4735 24.9833 72824 1
29.3971 20.9131 26.1407 20062 2
28.0268 18.2159 27.1007 1845 2
53.3038 18.2847 73.7387 27584 1
32.1246 20.0288 26.058 43709 1
35.0184 20.1713 25.738 1851 2
33.3177 19.18 23.8504 24988 2
31.879 21.6803 27.8306 25026 1
33.6173 20.1407 27.9331 2726 1
37.7673 21.2569 24.2828 22537 2
37.3865 21.3848 27.3156 1899 2
39.3977 18.7329 24.1753 1904 1
37.7223 18.3822 26.0596 22536 2
40.2114 20.2664 26.2882 1854 2
42.854 18.8033 26.8976 23128 2
42.6379 21.8795 25.3113 40934 2
42.4846 18.324 24.0555 23153 2
43.9171 21.242 27.7151 21871 1
44.9297 20.1027 25.1465 1099 2
47.6775 20.201 25.0603 40834 2
45.8802 19.2513 27.7297 22576 2
48.1171 22.1577 26.9888 1908 1
50.3519 18.9226 24.8924 38521 2
49.7947 21.9905 25.1039 40893 1
52.1205 19.4602 27.2523 22574 1
51.032 22.0078 27.4029 1110 2
49.3424 19.726 27.7175 22529 2
52.2675 20.788 24.9417 38365 2
55.6376 18.7586 24.7045 21944 1
54.5815 19.9752 26.4608 12513 1
55.1926 21.563 24.1288 39988 2
56.8536 20.7288 26.6219 13500 1
60.7198 21.8564 24.6854 31298 2
59.7686 19.3979 26.4965 19184 2
59.2991 22.0395 27.4338 31285 2
61.0999 19.2217 24.3272 31004 1
57.9381 20.0581 24.3137 38509 2
62.4141 18.1045 27.1745 31001 1
65.0719 18.4881 27.0918 30999 2
64.9329 21.7436 26.3959 21892 2
62.8853 20.2358 25.7409 31021 1
65.117 19.3344 24.3427 30371 1
63.0787 18.1107 24.765 31316 1
67.4211 19.782 25.2378 31023 2
69.3489 21.303 27.1325 19245 2
70.3338 18.4796 27.6253 38366 1
67.0687 20.4929 27.8649 20998 1
66.1643 18.2601 30.0539 12539 2
71.4747 20.3635 25.9733 30996 2
73.7272 21.6577 26.8586 12413 2
73.2163 18.4532 27.083 21403 2
17.9283 42.555 66.437 62049 2
21.122 24.098 26.0513 25062 1
19.437 25.7671 25.4149 970 1
18.6136 23.3049 26.0348 1928 2
21.8286 26.2009 24.8059 52493 1
20.6807 25.997 27.7029 1885 2
23.195 26.0828 26.6669 1888 1
23.6827 23.8395 25.0471 25024 2
25.4313 25.3715 26.4045 1945 1
25.6214 23.407 27.9107 1884 1
26.8633 23.0098 25.7093 1846 2
29.4043 23.5302 25.0448 1895 1
27.5405 25.5997 24.5995 1943 2
30.3669 25.9305 26.1352 40920 2
27.6152 25.4062 27.8759 1889 2
35.484 22.9207 25.0363 40928 2
32.3391 22.6296 25.3725 989 2
34.0862 25.6473 25.5463 1035 2
32.297 24.7335 27.2651 25060 1
34.4346 22.8629 27.5057 25027 2
36.9131 25.2201 26.3833 2729 2
39.7526 26.2318 25.331 2836 1
39.4113 23.6059 26.5885 3770 2
36.0983 25.076 23.7846 40922 1
40.2767 22.5708 24.3464 2790 1
41.3607 24.7892 24.5934 1956 1
41.9136 24.9032 26.9642 2782 1
43.7696 24.5791 25.1533 41801 1
43.6725 23.6253 27.6583 22532 1
45.6539 22.7101 25.9343 43705 2
46.2136 25.6809 24.4068 40939 2
46.7926 24.6703 26.9709 1153 1
44.5736 26.3802 26.9891 2837 2
25.5609 18.6614 73.7529 62146 2
49.2696 24.5626 25.8886 40989 2
52.0305 23.8541 24.8326 19180 2
54.1721 22.5721 26.8724 23176 2
53.2405 26.2184 26.3601 23642 1
55.1136 24.9062 27.8427 40030 1
54.9677 24.8545 25.0802 40025 2
56.8674 23.2779 27.8347 23172 1
30.8729 75.0381 60.5601 10808 1
57.4456 25.7492 26.7785 18330 2
57.5614 22.9868 25.0656 38629 2
59.8554 24.694 27.2054 20148 1
60.1717 24.7674 24.4494 199 2
62.4824 23.2526 26.4497 19285 2
64.8718 25.2154 27.3241 20106 2
64.9292 23.988 25.0402 18327 1
62.7028 26.1692 25.1946 19229 2
28.725 74.9016 24.0722 24854 1
67.617 22.3537 25.4578 31293 1
69.9621 22.4198 24.3915 31019 2
69.7305 24.2703 26.7815 1065 2
67.7464 25.9527 26.8486 19241 1
67.5337 24.6154 24.3838 31294 2
67.2051 23.2272 27.7295 31002 2
70.8643 25.6346 24.3061 44061 2
72.1005 23.3836 25.6568 12457 1
72.0732 25.7613 26.3719 30290 1
74.328 24.3911 26.5483 43162 1
73.5653 25.122 24.3575 44079 1
67.7883 18.2636 27.2953 30809 1
18.3389 27.7189 27.1734 63548 1
19.8009 28.551 25.2894 1933 2
22.085 30.9443 25.9513 1071 2
24.6618 26.8058 24.1319 25061 2
22.4229 28.2539 26.4058 63545 1
24.7892 29.5833 25.2848 1023 2
25.1183 27.7953 27.4669 1025 2
26.666 30.4942 26.7514 40916 1
26.9747 28.621 24.0855 986 1
27.8094 28.111 26.4375 39954 2
28.6516 30.2321 24.9933 19240 1
30.5614 28.9914 26.0755 983 1
29.3292 27.8121 23.9692 41796 1
32.7719 27.7935 27.4732 41845 2
33.3925 29.75 25.0082 41885 2
33.9701 30.636 27.5116 1033 1
32.0469 27.3161 24.3131 43811 2
66.8096 18.2849 56.5967 28140 2
35.8651 28.2206 26.2339 40926 2
37.4847 26.9308 24.2357 2779 1
37.858 30.1016 26.3532 2010 1
38.4108 27.731 26.5549 1083 1
39.041 29.0682 24.1764 1907 2
40.5781 26.9046 27.8146 1958 2
42.387 27.4619 25.561 41842 2
43.4574 30.3369 26.0381 43703 2
40.5491 29.6847 26.7083 40975 2
41.7567 29.2333 23.7084 1897 1
44.9341 28.2957 24.9748 40985 1
46.7416 30.4597 25.0714 41032 2
47.7607 27.7334 25.9532 40935 2
45.7035 29.0853 27.6886 41849 2
56.9406 74.9271 43.3735 24486 2
50.6851 27.0159 26.4336 2020 2
49.2115 30.0328 26.2772 1954 1
51.1113 29.1682 24.9449 42717 1
51.0754 29.4822 27.6177 2027 1
53.0886 28.6941 26.1063 40996 1
55.3254 27.7682 27.3183 20144 2
55.2962 30.5136 25.7641 248 2
55.9282 27.6678 24.3126 19382 2
24.377 75.1721 49.366 7208 2
60.26 27.0035 26.0061 246 1
58.1338 29.1326 26.3409 19231 2
60.9133 29.3632 24.6893 2792 2
60.1999 30.6053 27.7452 200 2
58.5756 27.3033 24.4062 19227 1
59.1526 31.2003 25.1071 1109 1
62.0632 28.4803 27.0071 19243 1
65.7412 26.6875 25.3089 18337 1
64.0432 28.9188 25.1024 19242 2
63.538 30.8061 27.4321 20214 2
68.4551 27.3635 24.0484 30998 2
69.8589 27.6092 26.7187 19186 2
66.9746 28.8906 26.6526 12515 2
69.5949 29.897 25.0794 43818 1
66.7289 30.5768 24.3601 30833 2
74.502 27.0457 26.0714 30993 2
71.4923 30.0309 26.7519 19294 1
73.5241 30.9645 25.5528 43804 1
72.1815 28.4076 24.7619 18339 2
72.3236 27.8416 27.5829 18336 1
74.3854 29.6086 27.6135 19300 2
18.3071 31.4094 25.5133 63536 2
18.4781 34.9057 25.746 1017 2
21.6143 33.7928 25.2433 1060 2
20.0213 32.3016 27.668 1934 2
19.4899 33.1668 24.1081 74584 1
20.8356 35.3579 27.4329 63543 1
24.6917 32.3906 26.5628 63681 2
24.4667 34.5319 25.0615 43702 1
23.0896 34.7639 27.1893 1069 1
26.7321 34.3427 25.6833 1070 1
28.1949 32.404 26.5962 40965 1
29.0482 34.3079 24.5829 1031 2
26.7021 31.7445 24.1977 40917 2
30.0788 33.8596 27.3119 2916 1
27.7991 34.6693 27.6838 1989 1
30.7344 31.8386 25.91 1940 2
34.7543 34.3065 26.6961 24974 2
33.2689 32.3037 25.5493 984 1
32.1027 34.6869 25.4393 1029 2
35.8361 31.6036 25.7076 41893 2
38.8635 32.4153 25.466 1199 2
36.8609 34.7155 25.0165 41937 2
39.1372 34.6542 27.2857 20283 2
36.834 33.23 27.5541 1080 1
41.2552 31.6699 24.8362 42701 1
41.2814 34.2438 25.6001 2002 1
43.632 32.8185 24.2859 41848 2
41.7117 32.4336 27.473 2004 2
41.7029 35.4993 27.728 2944 1
43.7242 35.3148 26.2715 2990 2
47.6213 31.5508 27.3479 2942 1
46.574 34.8891 26.1411 2067 2
45.1977 32.4775 26.8161 43700 2
46.761 33.0594 24.0646 197 2
52.11 31.3497 25.9535 1163 2
49.3822 33.0853 26.3793 237 2
52.2495 34.4123 27.1786 2022 2
51.735 33.5334 24.6073 291 1
66.8681 17.9305 64.0353 29012 2
56.7312 34.6641 25.6103 19334 1
54.5238 33.5526 25.0748 20251 2
54.5038 32.5537 27.4704 249 1
55.0354 34.8044 27.8924 1208 1
57.2353 32.1889 26.8847 2077 2
59.0271 33.7272 24.7331 241 2
59.7793 33.427 27.3344 19233 1
61.7443 32.3514 25.4207 1112 2
61.7616 34.7899 26.55 43165 1
17.4962 34.9588 66.3019 12129 2
64.4783 31.8087 24.9689 18380 1
63.9965 33.5491 26.7528 19341 1
64.2227 34.9968 24.4522 19232 2
66.1355 35.1994 26.6153 19339 1
66.3614 32.1628 27.0526 19289 2
66.5754 33.4309 24.784 19288 1
68.5237 32.0143 25.3582 20162 1
68.5906 34.2554 26.3346 19293 1
48.8119 18.1412 48.0918 10405 2
73.9694 32.7417 24.0658 19297 1
71.1999 32.4978 25.6571 19246 2
73.2763 35.0078 25.1825 43988 2
74.7849 33.212 26.8098 19301 2
20.2221 36.9357 25.5571 63542 1
19.7079 39.9385 25.449 63537 2
21.9384 38.7261 27.279 1979 2
22.9493 36.8577 25.4828 1988 2
24.9444 39.0269 25.7549 2036 2
25.6666 36.331 27.2672 1075 2
29.7282 36.3613 26.6911 1074 2
27.5471 37.0931 24.6808 41015 2
30.0062 39.5257 25.5804 1028 2
27.6351 38.948 27.2732 1122 2
17.7449 67.0762 63.6196 29585 1
75.1056 22.7489 24.3409 39972 2
34.6816 37.2745 26.6242 2829 2
32.1449 37.7421 26.1937 1079 1
33.5498 36.5794 24.403 41936 1
32.8875 39.2291 24.0324 1135 2
39.1982 35.5506 24.7528 19202 1
37.9609 37.6287 26.0302 41068 2
36.7998 38.729 28.4589 2061 2
40.74 36.8725 25.9394 40988 1
42.7809 38.6483 24.7871 1204 2
42.6944 37.8446 27.5392 2066 1
40.3253 39.5385 26.334 41984 2
45.2726 39.186 26.9288 41031 1
47.5403 37.547 26.69 330 2
46.1367 39.4106 24.2739 286 2
45.211 37.3527 25.4178 1159 1
47.0723 36.4896 24.1228 1197 1
49.3932 35.6924 25.7491 41035 1
51.7645 36.4353 24.8186 1155 2
50.5823 37.1821 27.4956 1162 2
49.2516 38.0534 24.3845 40108 2
50.4425 39.8409 25.947 290 1
53.1914 39.1232 26.003 18473 2
54.621 36.6361 25.7322 20297 2
55.5171 38.7676 27.5977 388 1
56.8678 36.772 27.0945 19276 1
28.0372 52.4383 23.89 50477 1
60.4071 38.6957 24.2477 18381 2
59.3479 36.0818 26.3795 2121 2
57.722 39.3457 26.2394 18430 2
60.3783 38.5723 26.8772 18376 1
57.6978 37.0654 24.1746 288 2
61.7188 36.7528 25.5869 1119 1
63.1635 38.9593 26.5839 19286 2
63.8503 36.2069 26.7557 20213 1
17.7878 18.286 25.9161 1932 2
66.0433 37.8768 25.3759 19281 2
64.6293 39.9315 24.4934 44031 1
65.5069 39.6053 27.6022 20260 1
70.2349 35.9905 25.0219 19349 2
67.4486 35.7086 24.6728 20215 1
68.5596 38.2328 25.3714 19290 1
67.81 39.4841 27.3219 163 1
70.6754 38.6082 23.7262 18383 1
70.7947 39.0562 26.6494 18437 2
71.8507 36.5605 26.9242 25899 1
73.7828 38.5205 27.2567 19352 2
72.6565 37.6552 24.8012 18386 1
74.4392 39.1537 24.7113 18489 1
19.1002 42.4733 27.1265 63648 1
20.19 42.4846 25.0345 63678 1
21.3131 41.9416 27.4404 63529 1
22.7477 40.5199 25.3956 2045 1
23.6791 40.901 27.6728 2039 1
22.747 42.8711 25.8137 21093 1
25.2884 42.2202 24.9798 41066 2
24.5019 43.6208 27.897 63091 2
26.4948 44.1622 26.2308 2969 1
26.5535 41.3719 27.4782 2037 2
28.6259 42.3051 25.5211 43701 2
28.6842 44.277 27.9694 2971 2
29.9041 41.5074 27.8975 25055 2
30.9861 41.8166 23.9151 41883 2
31.3921 43.6613 26.2403 2090 2
32.5356 40.6383 26.3152 41941 1
34.0989 42.9126 25.8388 2051 2
35.3238 39.7837 25.8016 1998 2
37.9686 40.4068 24.1399 41072 2
38.0787 40.8508 26.7232 1202 1
36.0192 42.2261 24.2195 2056 1
37.4333 43.4999 26.4206 41939 2
39.8287 42.4992 24.7214 3133 2
42.0902 41.2769 25.0441 1200 1
40.3726 42.3256 27.6996 1198 2
43.1595 40.2137 27.1131 25047 1
43.46 43.1844 26.7869 1251 2
74.8374 61.2286 61.6808 28393 2
44.4974 41.1053 25.3465 25049 1
46.4257 43.2854 25.4165 1254 2
45.6818 41.7459 27.9699 25018 2
47.9385 40.4985 26.6166 2119 2
48.9772 41.632 24.1625 41038 2
49.4819 42.7988 26.6579 2113 1
51.8386 42.0725 25.713 289 2
52.177 44.5661 24.3977 2120 1
52.2274 44.5609 27.0791 25040 2
73.2247 18.2008 64.496 12756 1
54.2993 43.8306 24.9583 1307 1
55.3676 41.2986 25.4725 18427 2
54.9318 43.5838 27.1052 39218 1
53.3696 41.7533 27.6713 20299 1
56.9024 44.1683 23.8178 1350 2
58.4155 41.353 24.1836 19282 2
57.5562 43.2072 26.5944 19337 2
60.2906 41.2288 26.2664 20206 2
61.8353 43.3805 26.9305 20298 2
59.6207 43.8131 25.4423 1255 1
61.7405 43.2203 24.3419 18479 1
62.342 40.9013 24.88 18379 1
64.3468 41.9975 26.5774 19338 2
66.2949 43.4342 24.6119 19384 1
63.9938 44.2813 25.1627 18435 1
66.7081 40.9921 25.4667 18433 2
69.5024 40.9287 24.9011 18439 2
68.2183 43.2582 26.0449 19396 1
69.6334 41.5232 27.5668 19340 1
70.5102 43.7373 25.871 19389 1
72.3113 40.2153 24.6183 18443 1
71.6888 41.7075 26.5265 20353 1
74.3003 41.489 26.1965 20361 2
71.9281 42.8357 23.9894 19401 2
73.1549 43.9608 26.1106 2141 1
21.0655 44.7688 26.9638 63528 2
18.4825 44.725 25.6304 63282 2
18.9447 47.0567 26.9096 63280 1
21.6479 47.2085 25.4601 53468 2
75.0587 35.349 65.6685 28611 1
59.2349 74.9018 66.5354 28926 1
24.2257 45.5194 25.4147 63650 2
24.3291 48.1994 26.615 2088 1
25.1412 48.4249 24.1657 41060 2
26.1528 46.2625 28.0763 2044 2
27.2711 46.9741 25.5463 41064 2
29.7095 45.5978 25.6894 2049 1
28.627 47.0739 27.8742 1131 1
30.2975 48.394 25.9961 41946 2
30.9745 46.2157 27.844 2046 1
32.5204 46.1724 25.433 2157 2
32.3662 48.2279 27.684 2922 1
34.5323 48.0757 26.3738 2095 2
35.1247 45.2931 26.7484 3952 1
65.0831 74.8289 65.4622 28975 1
39.0592 45.8433 25.0433 41124 2
36.4513 46.1043 25.0518 41990 1
37.3264 47.0816 27.3219 2159 2
39.1764 45.0948 27.8006 2156 1
37.1848 48.5721 24.7724 2155 1
41.0884 44.6197 26.342 1249 1
41.4506 47.2409 24.9059 1293 2
40.665 46.9664 27.4755 1292 1
43.0611 45.9694 26.6585 2162 1
44.2962 45.2393 24.4779 1257 1
44.2508 48.0359 25.3545 2169 2
45.8527 45.645 26.2478 381 1
46.0552 47.5381 27.5647 21219 1
47.8661 46.7601 26.059 385 1
48.1569 48.5777 27.9034 2214 1
49.6351 47.5907 23.9414 1305 2
49.62 44.9695 25.2807 340 2
51.95 46.7381 25.4187 1345 1
52.178 47.1369 27.7641 1302 1
72.0057 74.9294 60.6494 28048 2
56.2413 45.9616 26.1682 1306 2
54.1534 46.1199 24.2466 1264 1
54.1508 48.2298 26.587 19428 2
55.8824 48.4055 24.3588 19426 2
59.2476 45.7908 27.2491 1303 2
58.6974 46.7114 24.3059 20346 2
57.648 48.3596 27.202 21280 2
61.7072 46.0491 25.0919 20338 2
63.7143 45.7398 27.0707 20304 1
64.9668 46.6083 24.731 19386 2
63.0303 48.5766 24.119 1274 1
62.0636 46.9266 27.9389 259 1
66.1624 44.7763 26.9414 21284 2
66.8722 47.7502 26.2602 25875 1
68.337 45.758 24.9829 21192 2
69.4664 48.1539 27.1645 19439 2
70.0295 48.4164 24.0862 18476 2
70.8291 45.2406 23.6215 19395 1
71.4694 46.4285 26.1442 19436 2
73.1594 45.4301 24.1698 18542 1
73.3374 48.4586 24.7219 19445 2
74.6361 46.2777 26.2888 20313 2
19.3695 49.2687 25.809 63274 2
18.0635 52.2183 25.653 54461 1
20.2468 51.8568 24.4928 63632 2
21.7676 50.0084 27.6947 48858 2
20.5873 52.9335 27.4043 63060 2
18.6006 50.7709 28.0541 63275 2
24.5223 50.5273 27.0063 63527 1
22.5214 49.8809 24.781 48669 2
25.5973 51.2783 24.9793 2085 2
22.8888 52.1521 26.0624 63486 1
62.8747 23.4083 23.7185 30803 1
26.8951 49.4182 27.2014 63281 2
28.0965 49.4609 24.7151 41062 1
28.8128 51.4472 26.2106 24951 2
30.4384 52.8791 24.5788 2040 1
35.0128 50.2699 24.0539 41077 2
32.4755 49.9715 25.5776 41115 1
31.234 51.1171 27.0755 40237 1
34.6089 51.125 26.8014 41120 1
32.9511 52.5742 25.3934 2048 2
36.8833 52.0548 25.3782 378 2
36.5621 49.8207 26.8268 63642 1
38.3567 51.0921 27.6986 1336 1
39.3313 49.1504 26.1366 1294 2
27.4338 40.0729 24.1018 41016 2
40.1957 52.4022 26.3126 1339 2
42.2117 50.137 26.5916 2200 2
43.0012 53.2315 26.826 1388 2
41.4095 52.9473 23.8284 431 2
47.0222 49.3571 25.1395 41079 2
44.3048 51.553 24.653 383 2
45.1167 50.1552 27.3661 1295 2
46.6708 52.6353 25.312 2240 1
47.779 51.1428 26.9308 394 1
50.2174 48.6352 26.3988 2213 2
49.4345 51.3059 24.731 3092 2
52.2591 50.4846 25.1921 25001 2
50.2058 51.3392 27.8331 4065 2
52.4414 49.6579 27.9288 1301 1
51.1541 52.9872 25.6195 19565 1
55.322 51.3062 25.3249 1268 2
53.0774 52.3475 27.4406 25885 2
60.7035 48.5702 26.1803 2172 2
57.7089 51.0547 26.5335 1310 1
58.4825 49.4332 24.9895 19470 1
59.7987 51.6926 25.3029 3150 1
61.0454 51.2259 27.8375 20342 2
63.7617 48.543 26.6044 18534 2
62.4446 51.1275 25.1034 19483 2
64.59 51.4321 26.5328 20397 1
64.889 52.4541 24.3562 18526 1
65.5878 49.8333 24.2959 20344 2
67.9801 49.7583 25.4913 25042 1
67.2182 52.1394 25.5031 19482 2
70.2479 51.3963 24.9831 19488 2
69.0557 50.9162 27.5896 1224 1
66.3908 49.8975 27.8113 20351 2
71.7942 49.8046 27.0392 2268 2
72.9122 51.8752 24.6164 19532 2
73.7455 52.2889 27.2599 20447 1
18.185 56.6986 27.4722 50587 1
19.2166 54.9539 25.6194 63500 2
20.7113 57.3332 26.5455 48680 2
17.6493 28.655 74.595 62060 1
22.0591 54.6639 25.0487 63481 2
24.7706 53.625 25.9977 63235 1
24.1571 56.5012 25.0926 63634 2
22.3813 55.088 27.5771 63046 1
23.2075 57.2191 27.5321 63485 1
25.2081 55.582 27.894 63188 2
26.8625 56.9069 25.4135 63479 2
27.4827 54.0921 26.132 2089 2
29.3908 56.6979 25.5219 3022 1
30.4142 54.4051 26.6336 40239 2
66.5775 18.2318 35.119 12510 2
32.1253 55.361 23.8744 42703 2
32.9914 55.2084 26.5638 41977 1
35.1308 54.7611 24.864 41126 2
31.5571 57.3454 27.5578 2982 2
35.3778 53.7273 27.3142 41170 2
37.5202 54.5774 25.974 477 1
36.1952 56.7374 27.6782 376 2
39.2142 54.1211 24.4961 25067 1
39.0049 56.5548 26.8527 3191 2
42.9411 55.7144 24.1955 435 2
41.1343 55.0072 25.9392 19545 1
43.1683 56.2303 27.6168 2289 2
41.528 57.3562 25.8199 481 1
44.963 54.447 25.7549 1386 1
47.7474 55.4575 24.835 1348 2
46.0594 55.7929 27.5172 1347 1
62.4539 74.5412 36.9192 22682 1
48.3124 53.8844 27.0575 1297 2
45.2334 57.2932 25.3347 1390 2
47.4877 57.4106 26.8965 1393 1
50.0189 56.4482 26.7845 20463 2
51.9867 55.2171 25.4633 1399 1
50.7658 53.9241 27.774 1394 1
54.9325 54.1795 26.3415 19469 1
54.3184 56.2537 24.3701 20435 2
53.3538 53.2237 24.6267 1352 1
57.0165 55.7916 24.7859 19517 1
55.0688 56.5453 27.2128 19657 1
55.7129 53.6328 23.9429 19473 1
57.2843 53.2795 25.497 1267 1
59.27 53.2611 27.3869 19379 1
59.8945 54.7094 24.9909 20390 2
57.7628 55.7878 27.1444 25887 2
61.1567 56.5679 26.113 25865 1
58.9568 57.1277 24.9925 18630 1
62.2761 53.789 26.6455 19476 2
65.2465 54.1486 26.7466 19486 2
63.8734 56.4822 25.7719 19570 2
66.0035 54.9707 23.8142 19581 2
62.9966 54.1353 23.8513 18633 2
67.4989 55.283 26.0648 19585 1
69.9551 54.1251 26.5883 19524 2
69.1732 56.6792 24.2953 19586 2
69.1136 57.298 27.3795 19626 2
68.7057 53.9227 24.0936 19523 1
72.5656 54.0817 26.2548 20402 1
73.7177 56.1688 24.8004 20444 2
71.2582 56.61 25.828 20488 1
74.2851 55.239 27.5508 20446 1
41.6187 18.1822 69.3792 16037 2
53.7919 59.1427 23.9203 20473 2
18.1682 58.3051 25.3634 63187 2
21.5069 59.3927 25.2261 63438 1
19.6548 60.3518 26.5157 63040 1
19.0385 60.7691 23.875 53700 2
22.0753 59.9937 27.634 63183 2
24.6578 59.2369 25.9811 63433 2
23.2089 61.0295 24.2454 63598 1
26.7115 60.6932 27.0625 63042 1
29.4624 59.3853 26.4957 63272 2
27.3373 59.5467 24.9682 63410 1
29.3183 60.2881 23.9206 53557 1
34.3018 57.6116 25.6073 428 2
31.1738 61.1983 27.3145 3012 1
31.6742 58.0926 24.6143 25023 2
33.1088 59.5625 27.0185 24941 1
31.845 60.783 24.8901 1382 2
34.8659 60.5217 25.3355 24999 2
37.1656 56.9596 24.6254 1338 2
37.4247 59.3279 26.6526 1385 2
37.2913 60.3161 24.2646 426 1
39.7543 59.1949 24.7737 429 2
40.801 58.5897 27.6521 2333 1
41.7795 60.7627 25.8995 19607 1
43.0834 58.8838 26.5992 1387 1
42.8628 59.1293 23.837 479 2
43.6496 61.2091 27.6997 1441 2
40.2847 61.1928 28.0469 1436 2
45.6391 60.1635 25.9893 1445 2
48.1339 58.6251 24.7197 1447 2
48.1126 61.2373 25.9854 1444 1
46.8548 62.1094 24.1072 1395 1
50.9457 75.1632 58.6931 29666 1
47.8504 59.5229 27.6851 2294 1
51.0933 57.2529 24.5335 491 1
50.6173 60.0999 26.003 19569 2
52.1373 61.2741 24.1529 2342 1
52.6674 57.9127 26.6432 1398 2
55.8803 58.6176 25.9884 448 2
53.2962 60.4868 26.1762 24996 1
54.6127 61.7387 24.329 18770 1
21.3951 74.9335 27.9451 50713 1
57.5724 60.8758 25.1873 19618 2
59.272 58.5886 27.0335 444 2
60.5433 60.7022 25.877 20476 1
46.7 68.629 74.6729 15116 2
62.2701 58.9792 25.3828 19572 1
64.5312 59.3625 26.4111 19520 1
63.2739 61.3891 24.6271 19580 2
62.7872 61.1294 27.5196 19623 2
62.369 58.3271 27.9857 20428 2
66.573 57.868 25.5314 1420 2
69.2865 59.765 25.2565 20487 2
67.6316 59.836 27.1396 20483 1
66.1699 61.0676 25.0162 546 2
69.0921 61.8664 28.0321 20492 2
70.9804 61.6049 24.0493 19632 1
74.1535 61.0379 26.847 20497 2
72.1942 59.1599 24.9885 20485 2
73.6869 58.0921 27.3087 20489 2
71.387 61.4112 26.5241 21396 1
18.0125 62.4401 26.5668 55544 2
21.4399 62.5778 25.8176 63425 2
20.9105 65.7412 25.333 54635 2
18.3052 65.5182 26.15 55588 1
19.2699 63.6748 24.4364 53783 1
19.8927 64.4086 27.9031 63146 2
24.4005 62.1685 26.6209 54632 2
23.6701 64.3426 24.3774 63600 2
25.8178 65.3829 26.8051 63028 2
22.8236 64.6776 26.9899 48872 1
26.2196 64.0137 24.81 63474 1
28.2331 62.3649 25.3451 63227 2
28.5145 65.4539 24.3996 5799 2
28.8559 65.1575 27.386 63176 2
26.8688 63.0657 27.7583 63043 1
30.662 63.4721 25.7298 24954 2
74.9704 34.061 36.3082 21112 1
33.6862 62.4455 27.2334 3025 2
33.4055 63.5537 24.5091 19499 2
32.3343 64.8488 27.057 2284 1
39.159 62.1359 25.415 24937 2
36.6847 61.9649 26.8487 20458 1
36.413 62.8945 24.4427 2288 2
38.4121 65.4118 25.0713 2328 2
35.5391 64.6319 26.6014 3184 2
38.5485 63.8397 27.7057 1384 2
41.5726 63.5087 26.3638 1439 2
40.7535 65.8069 27.6774 2331 1
40.4158 63.9819 23.8931 2286 1
44.1023 62.7761 25.431 1391 1
43.9452 65.6829 25.7505 1442 2
46.7382 63.6397 26.3708 1443 2
45.6707 64.2633 23.8633 19616 1
44.4418 63.6188 27.5903 1438 1
46.7642 66.5222 24.3422 525 1
49.3492 65.8626 25.1134 1446 2
50.0222 62.8464 24.283 19660 2
49.3184 63.7591 26.719 25036 1
52.5782 65.9282 24.9251 2381 2
52.0609 63.1153 26.4832 19617 2
55.2968 61.555 26.4538 25862 1
54.5674 64.0222 25.4699 19665 1
56.3247 63.6388 27.2624 20518 1
53.7508 65.1012 27.5145 1490 1
57.0183 63.8682 24.7415 20521 2
61.5491 18.1297 50.7129 7564 1
59.9662 65.3809 25.3633 19670 2
57.6196 65.691 26.742 20522 1
59.227 62.8153 26.7665 20525 2
61.6399 63.3299 26.2883 25860 1
64.9205 63.4763 25.7582 19625 1
63.0676 64.1806 24.2934 1455 1
65.0327 65.7199 24.7641 2354 1
62.9808 65.4535 26.4461 19624 1
66.2834 65.6486 27.1437 21433 2
67.1988 63.9236 24.5472 602 1
67.1939 62.8918 26.5012 20533 1
69.7149 63.6136 25.4954 20527 2
68.7888 64.6041 28.0543 25854 1
17.6797 31.8708 42.5253 62785 2
70.7252 65.5916 23.8922 1461 1
73.0933 63.3191 24.9617 19679 2
71.7935 65.7961 26.355 21693 2
74.7005 65.1652 26.1629 22590 1
71.194 63.6526 27.7895 19639 1
18.9611 67.8037 25.6316 54678 1
19.3706 70.3435 24.3008 54856 2
21.2628 68.5204 25.3945 63142 1
21.0459 67.2307 27.8961 63177 2
19.8116 70.2656 27.1759 54810 2
18.3922 67.1654 27.9087 50692 1
23.2189 66.9693 25.6744 63141 1
23.0724 69.2769 27.3778 54677 2
25.2551 67.9646 26.2762 63140 1
24.2338 69.427 24.3336 48693 2
25.7956 70.2542 26.5316 63124 1
17.8799 25.9237 60.4648 62368 2
28.0366 68.053 26.5142 63144 2
26.9352 68.9489 24.2574 55682 1
30.1921 70.2105 25.984 63139 2
29.5765 68.2146 24.2182 1383 1
33.5604 66.3736 25.346 24853 1
31.0809 67.33 26.4453 63037 2
34.2072 68.6381 25.6833 48819 1
32.851 70.0064 27.3908 4408 2
17.6618 32.2907 70.1185 65130 2
35.7106 69.9082 27.1063 3598 1
38.7039 66.7574 27.5335 2332 1
36.5317 67.3356 26.0225 2373 2
38.121 69.8842 25.285 4204 2
39.2037 70.3414 27.6135 2419 1
41.2221 65.9707 25.3458 572 1
40.426 68.2576 26.0182 1482 2
42.9683 69.5366 25.9865 579 1
41.7288 70.1419 28.1017 1485 1
42.8477 67.5654 28.076 2420 2
73.0545 18.1427 48.49 18364 1
47.9157 66.4271 27.6394 19614 2
45.5144 68.0391 26.1056 578 2
47.0239 70.462 25.5095 3300 1
48.2451 68.4921 25.2901 1528 1
47.9889 69.878 27.998 3294 2
49.881 67.7726 26.8302 2338 1
51.0902 69.1134 24.9238 1488 2
52.52 67.534 27.0404 2427 1
50.9548 69.7173 28.0392 24995 2
48.8581 70.1268 23.7307 1535 1
55.3688 66.8113 25.997 2430 2
53.9674 69.7201 26.7681 1533 2
56.2905 69.4693 25.4525 2425 1
54.1974 68.6437 23.8646 19710 2
60.8537 69.0773 24.9901 19718 2
59.305 67.5385 27.1195 20569 1
58.84 70.1889 26.7119 25855 1
58.067 67.7442 24.8328 25882 2
61.6888 67.3411 26.8494 20571 1
62.3205 66.7564 24.2191 18779 2
64.3616 67.9245 26.0137 20529 2
63.0754 69.8496 27.5892 21735 1
68.5615 66.3256 25.363 18736 2
70.0834 68.4627 26.4045 25816 1
68.7586 69.3986 24.7646 18741 1
67.309 68.4458 26.9082 22589 2
66.5234 68.289 23.8858 21739 2
75.1086 52.1263 63.8976 28956 2
72.9394 68.6883 25.5465 2592 2
71.0739 70.3027 25.0067 21785 1
70.6884 67.8603 24.1973 2396 1
71.7416 67.9405 27.9132 25853 1
73.9583 69.6311 28.1937 21748 1
18.9636 73.5583 27.3442 54859 2
21.7325 73.7009 25.474 63116 2
18.9077 74.0396 24.2344 63363 2
22.0138 70.9787 25.3465 63128 1
72.0497 74.9202 58.1195 27992 1
23.8651 71.7077 26.3893 63010 1
24.6352 72.4897 24.1841 63118 2
25.9609 72.6364 26.6266 48908 1
26.8372 74.08 24.7231 3538 1
28.315 73.2749 26.9296 4507 1
27.7426 71.521 24.7264 63125 2
30.6733 72.3202 28.0036 3543 2
43.6273 74.8724 57.7212 9002 2
30.4603 73.0244 25.0365 3587 2
34.857 71.1825 25.136 21775 1
32.5111 71.1627 25.017 4458 1
33.4743 73.0639 26.9984 3599 2
33.1882 73.3107 24.1724 4512 1
38.5961 72.9993 24.6092 22511 2
36.6599 72.102 26.3526 3597 1
39.1883 73.011 27.5338 4520 2
35.6803 74.1298 24.9117 3602 2
44.7233 70.3717 24.8557 530 1
42.8456 72.9503 24.1109 577 2
40.8823 71.3285 25.6419 2374 2
42.6226 73.0047 27.3973 1532 2
40.8884 74.158 25.479 19699 1
45.0522 74.8025 27.0047 21842 1
45.1697 72.8194 25.4388 1487 2
47.0396 72.8519 27.7477 2424 2
48.1713 74.8696 25.9714 1531 2
49.352 71.801 25.956 2426 2
52.2334 71.373 25.2607 2431 1
51.4578 73.2957 26.5967 21736 1
52.7923 74.219 24.1309 22631 2
53.8603 72.95 26.6316 21526 1
54.908 71.8718 24.349 25821 2
55.757 74.2366 26.5535 21729 1
56.6982 71.6912 26.9344 21476 2
57.1453 73.6176 24.4535 2432 1
61.5858 74.7969 27.2284 21776 2
58.4804 71.079 24.435 19667 2
58.5371 74.2988 26.6419 20618 2
61.0989 71.8397 26.3035 20619 2
60.2736 73.8878 24.1518 21788 2
63.0796 70.3257 25.0956 25856 1
65.6164 70.6128 25.8378 20824 2
63.6239 73.2692 25.5333 22588 2
68.7041 71.5589 26.5724 21737 2
66.7283 73.5015 25.0265 21781 2
69.2522 74.7883 26.2716 21787 2
69.87 72.4035 23.8999 22688 2
66.5406 73.4451 27.973 22638 2
69.0978 18.4861 48.6892 7630 1
71.6439 70.8274 27.6081 22642 2
71.4321 73.6487 26.8206 25817 1
72.8567 72.3061 25.1195 20834 2
74.0472 72.4107 28.0219 21791 2
17.8434 71.8682 25.7212 63105 1
21.3461 38.9225 23.617 1987 2
19.5567 20.1707 28.0251 1881 2
20.9788 19.3362 30.5981 2716 2
19.4124 21.87 31.0499 20051 2
17.9265 19.2088 30.5583 59349 2
21.9094 21.1726 29.1148 25064 1
23.3271 19.0394 28.3865 20009 2
24.6601 21.3383 29.4409 24990 2
24.0186 20.4573 32.1274 3701 2
26.1861 18.4622 29.7508 784 2
26.7573 20.8987 31.0997 2772 1
27.7119 21.201 28.6085 2717 2
28.8359 19.2657 30.4138 1847 2
30.5902 21.7802 29.9493 936 1
28.9017 21.9651 31.3811 2776 1
31.0539 19.4127 28.694 1891 2
33.2633 20.9662 30.1871 987 1
35.846 19.0594 28.0753 20120 1
38.6663 19.0858 28.8732 21910 2
36.044 21.1523 30.0394 1900 2
38.3987 19.5321 31.7873 3663 2
39.0633 21.814 30.9021 3662 2
36.3315 18.5344 30.3807 3659 1
39.6326 21.5941 28.5419 3657 1
41.7715 20.2725 29.3605 22582 2
41.0944 20.1976 31.8263 25771 1
44.6967 20.2569 29.8063 12875 1
47.7318 19.9751 29.9366 23264 2
45.769 21.4555 32.1826 2791 2
74.8962 72.2141 73.0019 25193 2
50.128 21.2569 29.8212 21895 1
51.2929 18.7497 30.0902 3670 2
48.4262 22.228 31.8684 2736 2
52.8525 21.4348 29.4064 2785 2
55.492 21.0177 28.5545 23127 1
55.4674 20.279 31.0967 22564 2
54.25 18.5424 28.7937 22533 2
53.0111 20.0529 32.0009 21898 1
53.848 22.3765 31.9358 2851 1
61.5546 18.6855 30.9626 22527 2
57.5386 18.6612 28.5122 11602 2
57.7527 21.4874 29.5299 23632 1
58.2722 19.3238 31.7422 21893 2
59.7272 19.9264 29.221 20993 1
60.3996 21.6886 30.9332 20141 2
62.267 20.853 28.4482 38322 2
63.6016 18.4862 29.3463 12512 1
64.8557 20.6407 28.7302 12897 1
63.8079 20.6486 31.1196 25850 2
65.4798 18.9055 32.6612 31025 1
34.0359 74.7052 44.9507 6353 1
66.6203 21.4951 30.4351 11550 2
69.0281 19.338 29.6663 30802 2
70.5091 20.5334 31.4924 1659 1
74.3103 18.2067 30.2763 12895 2
71.9607 20.0287 29.0937 22613 2
74.6184 21.4213 29.9465 30808 2
72.7289 19.8993 31.7682 12506 1
72.1275 22.2903 31.2481 11516 1
20.1992 22.8093 28.0709 1887 1
20.098 24.3767 29.6341 1930 1
20.1725 25.2076 32.3162 2809 2
21.9801 25.6497 30.1952 2818 1
73.8586 74.1723 71.3142 3564 1
22.3349 22.8949 30.9844 1841 2
22.8404 23.5825 28.3083 1886 2
24.7238 25.5031 29.2869 976 2
25.509 23.1955 31.814 2770 2
23.5751 25.4613 32.3436 2820 2
26.7366 25.5272 30.8869 21001 1
29.7484 23.3772 27.7804 1944 2
29.0058 24.1921 30.428 2771 1
27.0437 23.326 29.7804 24989 1
29.0124 26.1995 31.6851 2764 1
31.0655 23.4787 32.4078 2724 2
31.0252 26.0677 29.7028 1946 2
32.4439 23.6089 29.6474 2775 2
33.6013 25.5636 31.7557 2825 2
34.9104 26.043 28.5125 25028 2
34.9635 23.8371 30.1341 2778 1
37.4142 23.7336 29.0588 25025 2
36.6037 23.343 31.546 5526 1
36.6024 25.9382 30.9599 2828 2
38.1701 26.1365 28.4273 1951 1
41.6735 22.4695 27.8192 3665 1
43.3745 22.609 30.3022 2784 2
40.5296 24.1426 29.4688 23152 2
43.0011 25.7182 29.4663 3759 2
41.3496 22.9309 31.854 3717 1
41.6839 25.3991 31.8291 2835 1
46.1358 22.3298 28.7318 4627 2
45.4185 24.7865 29.1376 21900 1
46.7762 23.9625 30.9214 3720 1
46.2931 26.2744 31.1942 2839 1
48.5787 25.5807 31.228 4629 1
52.094 24.5714 28.3438 2024 2
49.1426 23.8015 29.242 750 2
50.6357 24.4417 31.7366 710 1
52.9056 24.1238 30.905 21056 1
54.0174 26.0117 29.52 42770 1
56.7986 26.7227 29.5765 40027 2
55.5159 23.3575 30.1416 30857 2
54.9304 25.7693 32.1171 1056 2
57.7167 22.4119 31.7304 12459 1
57.2827 24.9022 31.7723 2028 1
58.6341 24.3834 29.7247 20098 2
61.1191 23.4401 28.9437 20104 1
61.3276 25.4749 30.4855 20201 1
61.9921 26.0187 28.0418 713 2
62.5358 23.4783 31.1739 20096 1
64.073 23.3396 29.1278 20100 2
64.0745 26.0691 30.6015 19684 2
69.2717 22.8679 30.0945 12867 2
66.5527 24.1101 30.3661 12414 1
70.1417 26.0115 29.3486 19196 2
66.9422 26.3571 29.2495 25879 2
68.1012 25.3608 32.1728 12419 2
72.8276 25.5109 28.4157 19299 1
70.8197 24.8808 31.6266 20160 1
71.7606 22.9618 28.4894 22672 2
74.4288 23.6742 28.7863 20157 1
73.3004 24.8206 31.0417 1651 2
18.853 26.8707 29.8199 2763 2
20.5667 29.1005 28.1324 63546 2
19.0871 29.2566 30.6057 1982 1
21.589 28.1158 31.106 2859 2
23.44 30.0779 28.7507 1018 2
22.637 27.504 28.7162 1929 1
24.8788 28.0031 31.0096 1941 2
25.4262 30.7673 30.5642 1986 1
26.3323 29.5209 28.8736 25059 1
29.8291 27.796 27.9477 1949 1
29.0421 30.4774 28.2539 1947 2
27.8438 27.7648 29.704 2769 2
27.9916 30.6724 31.0393 2817 2
30.7163 28.8401 30.5044 2864 2
31.5557 30.1364 27.8475 2872 1
33.2083 27.6095 30.115 24984 1
33.5346 30.5844 30.2008 1993 2
35.0084 28.6684 28.7637 24982 1
31.2453 31.114 32.3276 20205 1
36.3057 30.6127 28.2028 4713 1
35.8106 29.0907 31.363 3752 2
37.7855 28.5542 29.0742 2831 2
38.5828 29.4354 31.3415 2862 1
39.7387 26.8318 30.632 4664 2
40.3113 29.3005 29.6039 2873 1
42.5793 28.6317 28.6584 2069 2
41.5902 28.8457 31.8755 2879 2