ITEM: TIMESTEP    
70000     
ITEM: NUMBER OF ATOMS  
77888     
ITEM: BOX BOUNDS pp pp pp
17.607 132.393    
18.0782 131.922    
21.7107 128.289    
ITEM: ATOMS x y z id type
19.0867 20.8174 22.6972 72779 2
20.963 21.5853 24.9215 977 2
20.4875 18.553 24.5236 1839 2
29.342 18.3238 31.8408 21884 2
22.9339 19.5667 24.4514 23170 1
25.1603 20.6227 23.6155 72824 1
23.4999 21.7079 25.3365 1848 1
25.5166 18.3426 23.8443 22740 1
25.129 20.0155 25.9523 22628 1
22.2481 20.7889 21.9671 72830 2
29.1478 21.2555 25.5071 20062 2
27.7131 20.1876 22.7716 22548 2
30.425 18.4076 24.1188 23216 2
30.6922 21.1216 22.9938 2719 1
27.6301 18.6564 25.7617 1845 2
27.2701 22.9114 22.0439 978 1
32.9651 19.3568 22.5079 24988 2
31.9382 20.6808 24.961 43709 1
34.9155 20.3993 24.2337 1851 2
33.0841 18.2766 25.8688 23637 2
37.5865 20.7165 22.3512 22537 2
37.4065 21.5901 25.5735 1899 2
39.2269 18.5523 22.3113 1904 1
29.1576 70.12 21.7371 50703 1
40.0848 20.0752 24.6455 1854 2
42.906 19.0092 25.0155 23128 2
42.3795 22.1127 23.7326 40934 2
42.1331 18.0247 22.1725 23153 2
39.7603 22.3309 22.7328 2790 1
17.5475 30.3636 31.386 2861 2
45.0289 20.0252 22.8699 1099 2
47.5731 20.6557 23.2716 40834 2
45.791 19.726 25.9723 22576 2
47.8842 21.7641 25.6475 1908 1
50.1591 18.7736 22.7964 38521 2
50.1759 21.6094 22.4275 40893 1
49.5802 19.7791 25.4228 22529 2
52.3027 19.1372 25.346 22574 1
52.7286 20.5913 22.904 38365 2
57.0619 20.0288 24.5443 13500 1
55.3747 19.3011 22.7174 21944 1
54.7007 19.6664 24.7721 12513 1
60.4181 21.7558 22.7179 31298 2
59.934 19.5188 24.6741 19184 2
59.7178 22.1599 25.7896 31285 2
60.6248 19.0049 22.2328 31004 1
57.9538 19.7809 22.1115 38509 2
65.1606 18.3718 25.1042 30999 2
64.9388 21.395 24.6189 21892 2
62.7239 20.3943 23.9017 31021 1
64.9671 19.3356 22.4686 30371 1
62.4917 18.2346 25.1496 31001 1
66.9353 20.3817 26.0808 20998 1
67.6374 19.8463 23.2489 31023 2
69.3811 21.3255 25.4669 19245 2
75.0526 32.7954 44.0472 23817 2
69.7595 22.3531 22.4773 31019 2
71.1889 20.1516 23.9254 30996 2
73.9173 21.3787 24.863 12413 2
73.2563 18.081 24.8291 21403 2
72.3097 73.2044 72.9843 15179 2
20.3014 23.6398 21.8836 19183 2
20.6608 24.2143 24.4167 25062 1
19.3082 25.9398 23.5568 970 1
17.9623 23.5706 24.2126 1928 2
21.6402 26.4968 23.1853 52493 1
20.4001 26.4244 25.9825 1885 2
22.8853 25.8393 25.0561 1888 1
23.3585 23.7804 23.2533 25024 2
24.5935 27.0094 22.7202 25061 2
25.5524 25.1402 24.2376 1945 1
26.2515 22.7313 24.6288 1846 2
29.2514 23.1545 23.5696 1895 1
28.7394 24.7988 25.8234 1944 2
27.6688 25.4233 22.8798 1943 2
30.8154 25.7173 24.0866 40920 2
31.2036 23.0721 25.3926 25026 1
32.9261 24.7282 25.3777 25060 1
32.887 22.8322 23.369 989 2
34.1183 26.3698 23.5086 1035 2
35.2716 23.5971 25.9738 25027 2
35.948 23.3267 23.2311 40928 2
37.1768 25.8111 24.581 2729 2
39.5769 23.7011 24.8439 3770 2
39.771 26.1913 23.5842 2836 1
41.4755 24.561 23.0132 1956 1
42.0946 24.6148 25.405 2782 1
43.807 24.6926 23.4208 41801 1
45.3942 22.7708 24.3685 43705 2
46.4971 25.6243 23.0608 40939 2
47.2718 24.3367 25.543 1153 1
44.8206 25.6838 25.8907 2837 2
31.0629 74.8636 61.0634 10808 1
51.3415 21.9383 24.9952 1110 2
48.8937 23.4396 23.7056 40989 2
50.538 25.8841 24.8331 2020 2
51.8538 23.8696 22.7573 19180 2
49.3779 25.906 21.9688 23205 2
53.2965 25.4891 24.5806 23642 1
54.5085 22.3816 24.5567 23176 2
55.1091 24.9195 25.7017 40030 1
55.0343 24.7441 22.6713 40025 2
57.2548 23.3273 26.0542 23172 1
57.4762 25.6518 24.5862 18330 2
57.5507 24.7071 21.8125 18326 1
57.3959 22.6525 23.5536 38629 2
59.9152 24.7996 25.701 20148 1
60.1819 24.6489 22.9555 199 2
63.1702 26.2447 23.491 19229 2
62.4733 23.3788 24.7428 19285 2
65.2853 25.5546 25.6269 20106 2
65.0403 23.759 23.4024 18327 1
63.1401 23.0544 22.0615 30803 1
67.302 22.3418 23.8307 31293 1
69.7832 24.3999 24.786 1065 2
67.8383 25.9817 24.9435 19241 1
67.5901 24.5895 22.5946 31294 2
72.2979 22.9132 23.4745 12457 1
72.0009 25.9813 24.0365 30290 1
73.9572 24.4116 24.5994 43162 1
73.6619 24.7994 22.3431 44079 1
70.6465 74.7871 29.6157 11266 2
69.555 18.0544 68.452 29528 1
19.8002 28.6316 23.9011 1933 2
18.1087 27.4508 25.4607 63548 1
21.6326 30.9883 23.9703 1071 2
17.8008 46.2203 59.8435 62173 1
22.5683 28.2681 24.5436 63545 1
24.6725 29.7759 23.976 1023 2
25.0984 27.1778 25.8752 1025 2
22.1507 28.9004 21.8667 975 2
27.1106 30.1778 24.6328 40916 1
27.7034 27.7485 24.6447 39954 2
28.9522 29.7549 22.9968 19240 1
26.9253 28.5916 22.3982 986 1
29.9688 30.116 25.909 1947 2
30.6476 28.3833 23.6598 983 1
29.2388 27.4061 21.8879 41796 1
32.3235 28.0578 25.7068 41845 2
33.2093 29.4213 22.9322 41885 2
33.4446 30.7845 25.4449 1033 1
35.5556 28.7074 24.8471 40926 2
37.5758 30.4945 25.2159 2010 1
38.4181 30.0718 23.0628 2000 1
38.3885 28.1799 24.6642 1083 1
38.2188 27.535 22.2892 2779 1
42.3711 27.0625 24.607 41842 2
41.0627 28.7731 22.555 1907 2
43.4019 30.0229 24.1109 43703 2
40.4904 29.8197 25.5495 40975 2
43.4857 27.551 22.1215 1897 1
47.8264 27.1808 25.4689 40935 2
44.9296 27.4795 23.973 40985 1
46.4038 29.8952 23.5488 41032 2
48.0328 28.078 22.8734 41894 1
47.4736 30.9356 25.69 2942 1
48.8795 30.549 21.8976 41898 2
52.7556 26.8464 22.479 1165 2
49.2839 29.625 24.6936 1954 1
50.4062 28.5005 22.8535 42717 1
51.9603 28.7633 24.5743 40996 1
51.875 31.185 22.813 1163 2
51.133 31.1017 25.6007 42715 1
54.9475 27.55 25.1633 20144 2
56.0251 27.5708 22.1346 19382 2
53.8473 29.2021 23.1756 1105 1
56.1412 30.6 22.6637 248 2
54.1587 30.9284 25.2574 1164 2
56.7298 29.9249 26.1348 1973 2
60.5014 27.0273 24.0267 246 1
58.7934 26.7163 22.1868 19227 1
58.1481 28.6835 23.9567 19231 2
61.3578 29.56 23.0346 2792 2
60.1154 30.5412 25.9622 200 2
61.8572 28.6889 25.4312 19243 1
65.9074 26.8282 23.4104 18337 1
64.3142 28.8282 23.6175 19242 2
63.6808 30.9521 25.5135 20214 2
64.2585 28.0705 26.7024 20151 2
68.7072 27.34 22.7873 30998 2
70.0268 27.6159 25.6512 19186 2
67.1632 28.7521 25.2489 12515 2
69.4128 29.9976 23.972 43818 1
66.6008 30.6714 23.0113 30833 2
74.5843 27.3887 23.1632 30993 2
71.6402 29.7691 25.2869 19294 1
73.3883 30.1312 23.6974 43804 1
71.4415 28.3725 22.5448 18339 2
73.0113 27.7685 25.2991 18336 1
18.0608 31.5548 23.8481 63536 2
18.7948 34.729 24.3602 1017 2
21.7283 34.0717 23.3193 1060 2
20.1176 32.4463 21.9846 74584 1
21.0232 34.9886 25.8684 63543 1
19.993 32.4403 26.0482 1934 2
24.3323 32.83 24.5268 63681 2
24.6869 35.1903 23.2076 43702 1
28.5057 32.0564 24.3846 40965 1
26.8436 33.898 23.8041 1070 1
29.097 33.9135 22.4892 1031 2
26.7944 31.5502 22.1943 40917 2
30.3811 33.8379 25.1034 2916 1
31.419 31.7094 23.7746 1940 2
34.059 33.6196 24.7242 24974 2
33.2638 33.1715 22.2225 984 1
31.7448 35.0733 23.3615 1029 2
35.6129 31.56 23.4771 41893 2
38.8074 32.6417 23.9369 1199 2
36.745 34.6263 22.881 41937 2
38.8471 35.3412 25.4775 20283 2
36.7036 33.4617 25.6243 1080 1
39.3539 35.0925 22.4865 19202 1
41.1175 31.28 23.1922 42701 1
41.2096 34.4639 23.7698 2002 1
43.1241 32.8213 22.5102 41848 2
41.8584 32.7818 25.4166 2004 2
44.0225 35.3472 24.4254 2990 2
46.9066 34.7524 23.7028 2067 2
45.145 32.5256 24.8947 43700 2
46.3925 32.4418 22.0082 197 2
49.0482 32.551 24.0602 237 2
49.8435 35.0829 23.7065 41035 1
51.6961 33.629 25.3454 2022 2
51.0758 33.7212 22.4363 291 1
49.0313 34.6464 26.1014 236 1
54.6939 33.5033 26.0139 249 1
55.9974 35.0106 24.5344 19334 1
54.1 33.2356 23.2029 20251 2
57.1303 32.5432 24.6344 2077 2
17.9187 18.089 41.3011 22717 1
58.9879 31.0998 23.1788 1109 1
59.7073 33.6076 25.8867 19233 1
58.8431 33.7584 22.8209 241 2
61.5141 32.5297 24.0379 1112 2
61.8996 34.963 24.8095 43165 1
61.0699 35.296 22.1502 1111 2
64.487 32.6366 23.4941 18380 1
64.0689 35.2855 22.8669 19232 2
63.9989 33.8993 25.4622 19341 1
65.7179 35.5423 25.2214 19339 1
66.4721 32.441 25.4232 19289 2
66.8088 33.8665 23.178 19288 1
68.7766 32.6257 23.6986 20162 1
68.3888 34.5944 25.1523 19293 1
73.9779 32.2841 22.8205 19297 1
71.4497 32.2375 23.9536 19246 2
73.3076 34.8034 23.4642 43988 2
74.469 32.9508 25.4652 19301 2
70.8736 33.9421 21.8998 18438 1
20.6129 36.7002 24.2642 63542 1
17.9032 37.8325 25.2444 63539 2
19.1716 37.5803 22.7397 63669 1
19.9338 39.9105 23.826 63537 2
22.3505 38.3689 25.519 1979 2
23.2213 35.6672 25.1619 1069 1
22.6429 37.0869 22.5837 1988 2
25.0661 39.0955 24.0295 2036 2
25.9882 36.3896 25.0023 1075 2
25.0825 37.2246 21.7962 2034 1
29.3004 36.3005 25.1548 1074 2
27.6026 36.5581 22.3809 41015 2
29.8239 38.9226 23.4458 1028 2
27.8738 39.0762 25.3364 1122 2
27.2949 39.5662 21.8842 41016 2
34.4826 36.7246 23.7956 2829 2
31.7728 37.5702 24.5777 1079 1
71.6122 50.7135 21.9048 20352 1
35.2123 39.7032 23.8312 1998 2
37.6448 37.7973 23.8187 41068 2
41.7655 35.8078 25.7993 2944 1
40.7068 36.8848 23.6969 40988 1
43.0179 38.5094 22.5859 1204 2
42.8241 37.7552 25.1505 2066 1
40.4316 39.549 24.1527 41984 2
45.2615 37.7655 24.6532 41031 1
48.0964 37.2892 24.4253 330 2
46.6591 38.7944 22.1698 286 2
44.8071 36.6685 22.3404 1159 1
52.4419 36.1396 22.8264 1155 2
50.9928 36.6882 25.6747 1162 2
50.2245 39.3616 23.9631 290 1
49.6198 37.2226 21.9396 40108 2
52.9861 38.9554 24.1925 18473 2
53.8224 35.5747 25.0686 1208 1
56.2769 37.055 25.6578 19276 1
55.4319 37.4196 23.3063 20297 2
55.288 39.384 25.5543 388 1
60.3911 38.9664 22.2938 18381 2
58.5339 35.971 24.9411 2121 2
57.7046 39.2137 24.0503 18430 2
60.9373 36.967 24.1496 1119 1
59.6886 38.4748 25.8094 18376 1
22.5969 74.8543 29.0058 25780 1
62.2623 39.2729 25.106 19286 2
63.4406 36.8036 25.3229 20213 1
63.0713 37.9263 22.9536 19236 1
65.6662 38.288 24.3004 19281 2
64.716 39.6892 22.4 44031 1
70.0998 36.1406 23.3203 19349 2
67.1378 36.1422 23.3523 20215 1
68.356 37.1183 25.9315 19291 2
68.123 40.1621 25.1589 163 1
68.5348 38.2901 23.5211 19290 1
74.8007 39.3692 22.8286 18489 1
70.7174 38.5993 21.854 18383 1
70.7734 39.0692 24.6178 18437 2
72.0446 36.6549 24.7219 25899 1
73.8823 38.7938 25.3162 19352 2
72.8308 37.821 22.7787 18386 1
19.4449 42.4157 25.0839 63648 1
21.3141 44.3227 25.1167 63528 2
20.3368 42.5405 22.9534 63678 1
21.7699 41.3562 25.5326 63529 1
67.1984 17.8928 63.882 29012 2
22.7324 40.2969 23.2806 2045 1
23.9283 40.5289 26.1751 2039 1
22.6902 42.7918 23.3106 21093 1
24.9729 41.8939 22.8545 41066 2
24.1133 43.1797 25.6511 63091 2
26.2881 44.0038 24.2251 2969 1
26.577 41.397 25.7609 2037 2
30.4386 41.2292 25.375 25055 2
28.242 42.1251 23.2236 43701 2
30.773 44.1247 24.0706 2090 2
28.5858 43.7054 26.0351 2971 2
70.418 74.6377 47.8231 25647 2
32.44 39.8525 24.1915 41941 1
31.0075 41.5038 22.3165 41883 2
33.5656 42.6206 23.7327 2051 2
34.4133 44.0298 25.6816 41940 1
37.898 40.9536 24.3866 1202 1
35.8082 41.7452 25.8369 2053 2
38.7972 43.161 25.5303 41078 1
36.0606 42.0744 22.6005 2056 1
39.8217 42.725 22.8601 3133 2
36.746 44.2279 24.0296 41939 2
65.0166 74.8611 47.7477 26172 2
43.7909 40.0126 24.7852 25047 1
42.3498 41.2114 22.9331 1200 1
41.5959 42.5981 25.2318 1198 2
42.2799 44.1342 22.8529 1249 1
44.3845 43.1427 24.369 1251 2
44.654 40.6271 22.3541 25049 1
46.6278 40.3737 24.7255 2119 2
46.6693 42.6066 22.6342 1254 2
47.6251 43.3829 25.4006 1253 2
48.9765 40.8436 21.8345 41038 2
49.2903 41.4386 24.5068 2113 1
49.4628 44.0521 23.032 340 2
51.7947 42.0476 23.6479 289 2
73.5276 74.6636 24.6185 21796 1
54.1632 43.9023 22.8283 1307 1
53.6167 41.3549 25.5915 20299 1
55.3676 41.2436 23.4287 18427 2
54.5931 43.555 25.2005 39218 1
74.1445 18.2465 27.9016 12895 2
57.4901 43.4161 24.6637 19337 2
59.902 41.3646 24.2921 20206 2
59.4335 43.7698 23.0167 1255 1
58.0863 41.2594 21.7231 19282 2
61.8631 43.4638 24.8514 20298 2
61.6872 43.2875 22.346 18479 1
62.3229 40.8095 23.0348 18379 1
64.412 41.5102 24.7903 19338 2
63.9053 43.8875 23.3966 18435 1
66.2025 43.7128 22.4236 19384 1
66.8752 40.9533 22.8727 18433 2
69.6333 40.9845 23.0072 18439 2
68.0458 43.066 24.0569 19396 1
69.8877 41.9027 25.5877 19340 1
70.2001 43.7156 23.3401 19389 1
72.7362 40.4631 22.7364 18443 1
72.0123 42.0346 24.4662 20353 1
63.4556 74.9263 54.7938 27112 2
73.6103 44.0491 24.0625 2141 1
18.6636 45.1024 24.0145 63282 2
19.3263 47.1977 25.5345 63280 1
21.455 46.9841 23.5394 53468 2
23.9821 45.1849 22.9896 63650 2
23.7428 46.7091 24.9848 2088 1
24.7391 48.6547 24.0921 63527 1
26.528 46.8983 23.8211 41064 2
28.3992 45.1941 23.63 2049 1
30.1531 47.3214 23.4152 41946 2
28.6536 46.4382 25.651 1131 1
33.1286 46.08 24.0118 2157 2
31.9125 48.4335 24.9063 2922 1
31.0643 46.2362 25.9763 2046 1
61.5888 17.9057 50.8174 7564 1
35.487 46.1097 25.6334 3952 1
38.8509 46.04 22.451 41124 2
36.1317 46.5339 23.4173 41990 1
38.1342 46.9015 25.4476 2159 2
40.1159 44.952 24.9166 2156 1
42.0308 46.5479 23.4121 1293 2
40.7912 47.4315 25.5136 1292 1
44.3233 46.0891 24.6669 2162 1
44.9056 47.8113 22.6882 2169 2
46.5633 45.1386 23.8108 381 1
46.5072 47.1045 25.1041 21219 1
44.5287 44.8376 22.4053 1257 1
48.4497 48.5324 25.4971 2214 1
52.0928 44.6283 22.0188 2120 1
48.5678 46.8014 23.5684 385 1
52.067 44.9886 24.9758 25040 2
50.9135 48.3446 24.4644 2213 2
52.9827 46.7742 23.369 1345 1
18.4582 18.0566 38.5905 4552 2
55.6842 45.9121 24.2129 1306 2
55.9627 48.6231 22.352 19426 2
54.297 48.476 25.0204 19428 2
59.183 45.5301 25.4529 1303 2
58.6906 46.5832 22.7263 20346 2
60.5811 48.6977 24.499 2172 2
61.7167 45.9972 23.0353 20338 2
61.6013 46.5324 25.7652 259 1
63.6219 45.6597 25.1275 20304 1
64.5968 46.3195 22.4225 19386 2
62.87 48.5923 21.9843 1274 1
63.8746 48.4505 24.7015 18534 2
66.1483 44.646 25.0347 21284 2
66.4468 47.4033 24.3157 25875 1
68.3979 45.9244 23.1725 21192 2
69.638 48.0846 25.4764 19439 2
69.3158 44.6176 25.86 20308 2
70.3399 48.376 22.455 18476 2
71.7334 46.1542 24.2667 19436 2
71.8056 71.8334 70.8957 14222 1
73.8177 45.9118 22.3605 18542 1
19.6432 49.1862 23.8463 63274 2
18.424 51.8851 24.0932 54461 1
20.5602 51.6645 22.5869 63632 2
20.8632 52.4608 25.6161 63060 2
19.0556 50.3963 26.3022 63275 2
22.9806 49.5911 22.394 48669 2
25.3956 50.992 25.3475 63483 2
22.3564 49.5343 25.6085 48858 2
25.768 50.6738 22.243 2085 2
23.1341 51.6844 24.03 63486 1
27.9494 48.9573 22.2483 41062 1
27.7564 49.3437 24.9079 63281 2
29.978 50.6348 23.4545 24951 2
27.7042 52.6248 23.7729 2089 2
34.6557 48.8213 24.2332 2095 2
32.1512 49.016 22.5743 41115 1
31.5532 52.1027 22.072 2040 1
32.2753 50.7784 24.8519 40237 1
35.0231 51.0323 25.683 41120 1
34.0234 52.0242 23.3486 2048 2
37.321 48.5571 23.1407 2155 1
37.1876 51.8699 23.7699 378 2
37.0977 49.7249 25.4526 63642 1
39.3685 50.3894 25.9464 1336 1
42.0961 52.7844 21.9866 431 2
39.8292 49.0388 23.5345 1294 2
40.3416 52.0912 24.1163 1339 2
42.6116 49.7992 24.4491 2200 2
43.3081 53.0644 24.9305 1388 2
48.0737 49.1891 22.262 41079 2
44.8863 51.8866 22.2903 383 2
45.8405 49.7333 24.564 1295 2
47.0177 52.1659 24.236 2240 1
48.8937 50.7253 24.5017 394 1
49.2729 52.2238 22.3771 3092 2
52.286 50.9283 23.6292 25001 2
50.6188 49.6581 21.7027 1351 1
50.5578 51.8186 26.2402 4065 2
55.522 51.146 23.7127 1268 2
53.6151 52.8558 25.8864 25885 2
57.4887 48.2531 25.3746 21280 2
57.9089 51.1541 25.077 1310 1
58.2804 49.8025 23.2411 19470 1
59.9107 51.5208 23.4737 3150 1
65.3751 49.5219 22.2726 20344 2
62.4136 51.0396 23.4513 19483 2
64.9758 51.2313 24.3732 20397 1
64.9486 52.1964 22.3277 18526 1
67.9927 49.1805 23.3791 25042 1
67.54 51.8859 23.3313 19482 2
70.2772 51.2092 24.0644 19488 2
66.8467 49.685 25.9122 20351 2
17.7787 28.8325 74.4503 62060 1
72.5972 48.9697 25.1257 2268 2
73.4197 51.6914 24.0538 19532 2
73.4681 48.8804 22.2229 19445 2
19.4205 54.7053 23.7458 63500 2
21.2319 56.9569 24.6019 48680 2
17.4938 31.9573 69.8888 65130 2
25.0269 53.1239 23.5852 63235 1
22.6377 54.3665 23.7291 63481 2
23.8687 56.4273 22.0762 63634 2
25.6957 55.2268 24.6257 63188 2
23.617 56.4681 25.6255 63485 1
30.5591 53.8762 24.2329 40239 2
26.7926 57.4224 23.1018 63479 2
28.4721 55.1606 23.1387 3022 1
28.6741 55.9862 25.6501 2195 2
30.6745 56.7627 22.963 25023 2
33.4174 54.7241 24.4764 41977 1
33.8604 57.5293 23.2524 428 2
35.3533 54.6847 22.8585 41126 2
35.4765 53.6483 25.9851 41170 2
31.9225 56.3703 25.9158 2982 2
37.5532 54.4915 23.9199 477 1
36.1323 56.6739 25.1277 376 2
37.6487 57.1675 22.3338 1338 2
39.5134 54.1162 22.7207 25067 1
39.4611 56.1805 24.866 3191 2
43.8318 55.5389 22.1627 435 2
41.6728 54.9607 23.9072 19545 1
42.2885 57.2818 23.5557 481 1
43.5903 56.1115 25.7888 2289 2
45.6317 54.3955 23.9512 1386 1
46.8475 53.5154 22.1542 438 1
47.7405 55.9173 22.1287 1348 2
46.1264 55.8251 25.6923 1347 1
45.4781 57.4376 23.3349 1390 2
48.4599 54.2862 24.8094 1297 2
47.567 57.2343 24.6425 1393 1
50.1049 56.7787 24.6197 20463 2
51.0525 53.2852 23.9837 19565 1
50.9883 55.0711 21.9482 1392 2
51.9232 57.5623 22.674 491 1
50.8495 54.5464 26.132 1394 1
52.4608 55.1159 24.1254 1399 1
55.3897 54.1013 24.273 19469 1
54.4967 56.1568 22.6232 20435 2
55.5135 56.0444 25.7948 19657 1
53.5404 53.231 22.7622 1352 1
57.1202 55.2424 22.6678 19517 1
17.6515 69.0585 66.6505 12325 1
57.558 53.1364 23.72 1267 1
59.2858 53.3024 25.3828 19379 1
59.7757 54.3379 22.8246 20390 2
58.1176 55.9795 25.1793 25887 2
58.9445 57.0157 22.7684 18630 1
60.7357 56.3732 24.1963 25865 1
62.1435 53.6359 24.9205 19476 2
65.2977 53.8052 24.8779 19486 2
63.5611 56.201 23.7178 19570 2
65.878 54.7144 22.1483 19581 2
62.9453 53.7239 21.9607 18633 2
67.4974 54.8728 24.4465 19585 1
70.0386 54.2458 24.6692 19524 2
69.2737 56.5617 22.3608 19586 2
68.9718 56.8346 25.8262 19626 2
68.654 53.8972 22.2354 19523 1
71.6803 53.8202 22.3036 19489 2
72.7408 54.2786 24.7212 20402 1
73.8584 56.2211 23.3471 20444 2
71.3707 56.9841 24.2791 20488 1
74.521 55.7153 25.9193 20446 1
74.2816 53.1586 26.3216 20447 1
18.4899 59.9536 22.0959 53700 2
21.2378 59.4387 23.1095 63438 1
19.4909 59.9605 24.7266 63040 1
18.1559 57.5716 23.8879 63187 2
21.9733 59.6775 25.8028 63183 2
23.9724 58.6564 23.8677 63433 2
23.2333 60.9396 22.2562 63598 1
26.2648 60.0026 24.3848 63042 1
29.1305 59.085 24.5058 63272 2
29.4223 58.9519 21.713 53557 1
27.352 59.8543 22.1931 63410 1
33.9642 58.4356 25.7011 24941 1
31.8183 60.0756 22.8787 1382 2
31.6619 58.886 25.3656 3012 1
33.6471 61.3787 25.9466 3025 2
35.3549 59.8604 23.8977 24999 2
38.1444 59.1153 25.2203 1385 2
37.6952 60.0041 22.4298 426 1
36.7994 61.8692 25.4856 20458 1
39.4539 61.8639 24.1748 24937 2
43.1983 59.4223 22.2233 479 2
40.1074 59.0094 22.7655 429 2
40.9883 58.6012 25.5576 2333 1
41.8878 60.729 24.3913 19607 1
43.646 58.8485 24.7655 1387 1
45.9172 60.5965 24.0531 1445 2
48.4151 61.4373 24.3791 1444 1
48.573 59.1862 25.716 2294 1
48.3869 59.2139 22.9407 1447 2
66.0963 18.1149 28.166 12539 2
51.0673 59.9187 24.2285 19569 2
53.0191 57.6404 25.0391 1398 2
52.6409 61.7757 22.9028 2342 1
55.9746 58.5216 24.5142 448 2
53.5604 60.5072 25.1832 24996 1
53.9366 59.6238 22.1905 20473 2
55.1652 61.9498 24.2424 25862 1
50.531 46.8775 21.6957 1305 2
57.3675 60.7562 22.8116 19618 2
59.0259 58.9531 24.6076 444 2
60.8468 60.6258 23.8763 20476 1
62.1933 58.6993 22.8071 19572 1
64.2184 58.9811 24.3524 19520 1
63.3372 61.0894 22.774 19580 2
62.1519 58.0173 25.6127 20428 2
62.8759 60.9519 25.749 19623 2
66.5184 57.3385 23.795 1420 2
69.5118 59.2401 23.6064 20487 2
67.8041 59.4323 25.5984 20483 1
66.5793 60.8838 23.4066 546 2
37.1721 18.2607 24.2577 22536 2
70.5321 61.137 21.9749 19632 1
74.6934 60.9945 25.3107 20497 2
72.3871 59.4595 23.2939 20485 2
73.5077 58.2092 25.69 20489 2
71.8396 61.8457 25.4905 21396 1
21.5027 61.9729 24.0343 63425 2
20.9463 65.0995 23.1364 54635 2
18.4075 64.8212 24.21 55588 1
19.3532 63.3006 22.0711 53783 1
18.0742 62.2829 24.4007 55544 2
20.3341 63.9985 26.073 63146 2
24.9392 62.1667 24.4432 54632 2
23.6088 63.8364 22.2415 63600 2
25.386 65.5428 24.7633 63028 2
22.8638 64.3103 24.8696 48872 1
26.337 64.0345 22.9778 63474 1
29.3398 63.119 25.8043 48774 1
28.2196 62.0097 23.8905 63227 2
28.8173 64.5049 22.4956 5799 2
28.4874 65.576 25.5201 63176 2
26.938 63.3043 25.9176 63043 1
30.9722 62.6452 23.7212 24954 2
33.946 62.3962 22.9722 19499 2
33.0391 63.908 25.1132 2284 1
33.7543 65.2743 23.4166 24853 1
70.8529 45.4079 21.7091 19395 1
36.9616 62.564 22.8927 2288 2
38.4958 65.1475 23.8757 2328 2
35.7599 64.3002 25.2899 3184 2
38.0173 66.4311 26.031 2332 1
41.9061 62.0626 22.4407 25906 1
40.4795 64.1279 22.2609 2286 1
41.5877 63.6876 24.9592 1439 2
43.9488 62.8807 23.7898 1391 1
44.0528 65.3947 24.0401 1442 2
47.3862 62.0285 22.2221 1395 1
74.9073 18.5328 32.7893 11586 1
46.8087 63.7451 24.6981 1443 2
46.1891 66.1332 22.7131 525 1
45.4187 65.8849 26.3606 19652 1
48.6464 65.6601 22.6642 1446 2
50.0088 62.4221 22.2785 19660 2
49.4843 63.8507 24.7767 25036 1
52.0362 65.5067 22.9726 2381 2
51.9039 63.053 25.2378 19617 2
51.0541 65.7834 26.2192 2388 2
54.1029 63.8992 23.5679 19665 1
56.2108 63.6151 25.4485 20518 1
57.0585 63.882 22.8261 20521 2
53.6891 65.0493 26.0748 1490 1
54.8504 62.3303 21.8159 18770 1
60.2338 65.2718 23.6806 19670 2
57.5797 65.5606 25.2927 20522 1
59.1409 62.4366 24.6669 20525 2
61.7762 63.0046 24.3224 25860 1
60.255 62.7837 21.8349 18729 2
64.7257 63.2827 23.6594 19625 1
62.7324 63.9973 22.3475 1455 1
65.2652 65.4747 23.0416 2354 1
63.0363 65.3883 24.3587 19624 1
65.8142 65.7688 25.7989 21433 2
66.9665 63.2909 22.5125 602 1
66.805 63.2334 24.9144 20533 1
68.1803 65.608 23.7577 18736 2
69.6183 62.9208 23.9563 20527 2
70.7456 65.3192 22.4086 1461 1
68.875 61.7964 26.383 20492 2
74.5055 65.17 24.3278 22590 1
73.176 62.8806 23.2028 19679 2
71.918 65.3653 24.6152 21693 2
19.1676 66.625 25.8011 50692 1
19.0899 67.1558 23.4071 50596 1
20.1777 68.5358 24.8953 54678 1
17.9004 69.3347 24.385 63016 1
19.6456 70.0423 22.1926 54856 2
21.5826 68.0547 22.7512 63142 1
23.3272 66.5859 23.3586 63141 1
22.966 69.3493 24.8738 54677 2
25.3519 68.2887 24.1546 63140 1
22.0813 70.8573 22.7372 63128 1
25.9164 70.3259 26.2771 63113 2
74.7469 56.8644 28.4591 21297 2
28.0563 68.3265 24.3251 63144 2
26.8079 69.0418 22.1834 55682 1
30.8272 69.3971 23.9026 63139 2
28.8881 67.0377 22.3678 1383 1
31.1851 66.5154 24.0722 63037 2
33.2325 67.8746 23.3029 48819 1
33.3768 70.2515 22.6148 4458 1
33.8151 69.8312 25.2727 4408 2
35.9146 69.4358 22.6331 21775 1
36.6341 70.3139 25.0238 3598 1
35.8777 67.5946 24.4966 2373 2
38.288 67.4851 22.2021 4413 2
39.6973 68.3612 24.8643 1482 2
38.582 70.3819 22.8208 4204 2
38.9775 70.9299 25.9635 2419 1
41.2613 66.5053 23.7598 572 1
40.682 68.6325 22.119 526 1
42.5563 68.6814 23.8197 579 1
43.5983 67.4598 21.7748 527 2
44.4367 69.9091 22.7186 530 1
45.6429 68.1143 24.4551 578 2
47.9912 66.4371 25.6361 19614 2
48.4482 68.6612 23.8027 1528 1
47.5638 69.8776 25.8913 3294 2
43.9978 70.6436 25.4624 1483 2
50.4296 67.389 23.9682 2338 1
51.2062 69.8237 23.0673 1488 2
50.3026 69.0675 25.9048 24995 2
52.6769 67.5499 24.6555 2427 1
55.2039 66.4163 24.3874 2430 2
53.8564 69.7811 25.2697 1533 2
55.9631 69.275 23.381 2425 1
53.8403 68.207 22.1534 19710 2
60.6325 68.8093 22.985 19718 2
59.3071 67.3726 25.2044 20569 1
58.5076 69.6503 24.4476 25855 1
57.663 67.127 22.7958 25882 2
61.9624 67.4753 24.7327 20571 1
62.626 66.6936 21.9437 18779 2
64.4573 67.8754 24.2139 20529 2
63.0482 69.9382 25.4496 21735 1
63.133 70.0622 23.0108 25856 1
66.5322 68.1551 22.0914 21739 2
70.421 67.7583 24.2564 25816 1
69.4444 69.4809 22.8682 18741 1
67.8818 68.4124 25.062 22589 2
67.4367 70.527 22.1243 21740 1
68.8699 66.7229 21.4648 25881 1
71.1699 67.564 21.9051 2396 1
73.2548 68.0143 23.8231 2592 2
71.8053 70.1485 22.14 21785 1
71.8701 67.6534 26.174 25853 1
73.7975 69.5116 26.3514 21748 1
71.5407 70.3817 25.2004 22642 2
20.3249 71.218 25.234 54810 2
18.9288 74.1099 25.3536 54859 2
18.318 72.1363 23.4228 63105 1
21.0473 73.1643 23.0248 63116 2
18.9122 75.1858 22.3895 63363 2
17.4411 70.0555 71.7497 14240 1
23.7933 74.5932 23.5369 63005 2
26.6012 74.1358 22.1579 3538 1
25.3146 70.9377 23.5739 63124 1
23.5231 72.1962 24.5649 63010 1
25.8957 73.0418 24.6162 48908 1
29.9146 73.4673 24.7685 4507 1
28.0166 71.7103 23.6626 63125 2
28.8681 74.1993 22.9316 24854 1
29.1987 70.5895 26.3057 4452 2
30.983 72.1051 22.2663 3587 2
33.2543 72.4081 23.7214 4512 1
31.6076 72.0077 25.7613 3543 2
34.6389 72.4327 26.0929 3599 2
32.4637 74.7976 24.2361 3594 2
35.578 74.8506 24.2335 21849 2
35.7336 71.9705 23.0827 3602 2
39.0165 73.3763 22.7324 22511 2
37.5727 72.4389 24.9845 3597 1
41.4361 71.1062 23.9274 2374 2
50.6819 18.1604 63.4182 16360 1
43.1741 74.0525 25.7353 1532 2
40.229 73.3723 25.5187 4520 2
57.4783 18.2922 48.7492 8512 1
44.5855 72.9404 23.047 1487 2
46.4264 70.7902 23.6876 3300 1
46.2953 72.6732 25.6941 2424 2
49.0668 72.2207 24.1616 2426 2
51.435 71.3902 25.0856 2431 1
51.1937 73.7768 24.1324 21736 1
48.7396 70.3283 22.0237 1535 1
53.2587 74.4266 22.3963 22631 2
54.3919 71.3577 22.255 25821 2
55.3218 73.7495 24.6341 21729 1
56.3224 71.3981 24.8458 21476 2
56.3393 73.1953 22.5328 2432 1
53.3295 72.5289 24.4689 21526 1
58.4552 73.759 24.2891 20618 2
60.9354 71.7023 24.3604 20619 2
61.0654 73.9896 22.266 21788 2
58.5427 71.4279 22.2728 19667 2
58.825 71.5891 26.0017 20616 1
70.3497 18.2319 25.6529 38366 1
74.5982 21.9663 55.6882 25477 1
65.6795 70.5584 24.1196 20824 2
63.8733 72.8598 23.7901 22588 2
74.8978 59.9798 28.1547 21399 2
69.1581 74.6568 24.5137 21787 2
68.7073 71.3815 24.7602 21737 2
67.1958 73.1778 22.8019 21781 2
70.1161 72.2206 22.2544 22688 2
71.2941 73.2238 24.8249 25817 1
73.1262 72.4719 23.087 20834 2
73.9521 72.3476 26.0673 21791 2
17.8626 21.956 34.4087 49611 1
32.1852 26.9293 21.6484 43811 2
19.1791 19.9627 26.8819 1881 2
20.7476 19.3699 29.573 2716 2
21.2795 21.4978 27.8571 25064 1
19.185 22.0568 29.5107 20051 2
25.7298 18.8003 28.182 784 2
22.7762 19.3727 27.1964 20009 2
24.2012 22.2394 27.7742 24990 2
23.6692 20.7021 30.259 3701 2
37.595 18.1731 51.5773 18954 2
26.3724 21.1427 29.6177 2772 1
27.2426 21.5578 27.2555 2717 2
28.6738 18.9935 28.8904 1847 2
29.6116 21.4383 29.0499 2776 1
33.7459 21.1759 26.2987 2726 1
31.2505 20.2544 27.5088 1891 2
33.7253 20.3455 28.4526 987 1
31.4823 20.3596 30.6386 3653 2
35.5113 19.3814 26.6224 20120 1
35.9317 18.4259 28.7688 3659 1
38.3066 19.0207 27.0952 21910 2
39.337 21.9199 27.1382 3657 1
36.1822 21.2764 28.5319 1900 2
38.4125 19.2703 30.2743 3663 2
39.2955 22.0957 29.7351 3662 2
41.6101 22.3425 26.2812 3665 1
41.1877 20.1125 27.7516 22582 2
43.7135 21.0298 26.4886 21871 1
43.6219 17.9658 27.7989 22714 2
43.0353 22.2197 29.0423 2784 2
41.5078 20.4285 30.4697 25771 1
46.2286 18.3281 28.3106 22534 1
45.1337 20.4263 28.8426 12875 1
48.1038 20.4611 27.9983 23264 2
50.939 18.6162 27.7108 3670 2
50.7723 21.2404 27.9163 21895 1
51.88 22.4331 29.9474 22570 2
50.1696 19.8652 30.0843 22528 1
52.6024 19.6689 29.7803 21898 1
56.0069 21.0224 26.5604 23127 1
53.2835 21.0349 27.1461 2785 2
55.2923 20.3141 29.4542 22564 2
54.4445 18.3719 27.0691 22533 2
61.3579 18.3913 29.6375 22527 2
57.7104 18.5136 26.5508 11602 2
57.9395 21.2129 27.8567 23632 1
58.2345 19.2836 29.9484 21893 2
59.8488 19.7917 27.5777 20993 1
60.5255 21.7104 29.3438 20141 2
74.4429 39.6376 41.8875 22066 2
62.1167 20.8208 26.5926 38322 2
63.2446 18.6463 27.6619 12512 1
64.9139 20.5347 27.0442 12897 1
63.6191 20.6868 29.4746 25850 2
66.5932 21.1451 28.8603 11550 2
68.7241 19.3807 27.9628 30802 2
70.554 20.472 29.5507 1659 1
71.8063 20.115 27.1399 22613 2
74.7209 21.3426 28.069 30808 2
72.9328 19.8748 29.7761 12506 1
17.7698 53.2025 21.9897 53599 1
32.425 54.7376 21.6549 42703 2
19.1383 22.7116 26.5967 1887 1
19.4337 24.3539 28.1788 1930 1
21.1598 25.9494 28.6722 2818 1
18.1372 23.1319 31.6581 2758 1
21.8646 23.857 26.6112 1886 2
24.3485 24.1073 25.8945 1884 1
21.964 23.4002 29.5776 1841 2
23.7789 25.5412 28.316 976 2
25.3329 23.5054 30.0189 2770 2
25.6634 26.409 29.922 21001 1
30.0012 23.1573 27.5845 936 1
26.5112 24.7074 27.3455 1889 2
29.3993 25.5105 28.5594 2771 1
27.9912 23.4575 29.4222 24989 1
27.6969 25.6364 30.3155 2764 1
29.7929 27.1968 26.055 1949 1
32.7276 22.9594 27.7415 2775 2
31.7694 25.6231 27.6236 1946 2
33.4229 25.6875 30.0603 2825 2
34.8713 26.3986 26.9139 25028 2
35.0811 24.1768 28.7104 2778 1
30.9333 23.4206 30.2705 2724 2
37.8153 24.2196 27.4904 25025 2
36.8703 23.4996 30.0357 5526 1
36.5141 26.4399 29.4102 2828 2
40.2353 26.7705 26.2018 1958 2
43.6499 23.5214 26.9133 22532 1
40.7669 24.1546 27.9821 23152 2
42.5876 25.769 28.3444 3759 2
41.4064 23.7318 30.8057 3717 1
46.111 22.6946 27.6285 4627 2
44.8331 24.5875 28.8977 21900 1
47.3826 25.6353 28.0571 2786 2
46.0887 26.2727 30.3168 3720 1
48.8548 22.6607 29.9472 2736 2
48.2894 25.2898 30.6811 4629 1
49.5336 23.5072 27.1064 750 2
52.5344 24.102 26.8829 2024 2
50.5924 26.1812 28.0131 1107 2
52.8689 24.7357 29.2387 21056 1
50.6759 24.889 30.3976 710 1
54.2164 26.3559 27.6455 42770 1
56.8488 26.1301 27.4607 40027 2
55.6839 23.3074 28.1178 30857 2
55.2155 25.4112 30.1298 1056 2
54.4341 22.9192 30.3526 2851 1
57.4261 22.1513 30.0998 12459 1
57.7722 24.5404 30.2033 2028 1
61.6033 23.5168 27.5271 20104 1
59.0218 24.024 28.1766 20098 2
61.6982 25.5351 28.7839 20201 1
61.9955 26.0737 26.2762 713 2
62.744 23.554 29.7112 20096 1
64.2258 23.2969 27.3701 20100 2
64.349 26.1229 28.9847 19684 2
65.1917 23.508 30.621 25880 2
67.152 23.2738 26.2186 31002 2
69.1124 22.7269 28.5493 12867 2
66.5552 24.1006 28.5192 12414 1
67.3003 26.4663 27.5091 25879 2
70.1743 25.5091 27.818 19196 2
68.1175 25.1586 30.5055 12419 2
72.4737 25.6329 26.1601 19299 1
72.3507 22.494 29.5836 11516 1
70.7518 24.7425 30.3409 20160 1
71.8885 22.9766 26.7721 22672 2
74.4445 23.6024 26.7331 20157 1
73.098 25.0717 28.9519 1651 2
20.7859 29.4963 26.6721 63546 2
18.472 27.3532 28.3862 2763 2
17.9574 29.9724 26.3838 1936 2
18.9382 30.0295 29.0496 1982 1
21.7823 28.3475 29.5165 2859 2
23.5405 30.7477 26.5694 1018 2
22.765 27.8559 26.8989 1929 1
24.6798 28.6758 28.7948 1941 2
25.3979 31.1539 28.6432 1986 1
27.5407 27.5926 27.702 2769 2
26.2471 29.7792 26.765 25059 1
30.4581 28.3628 28.6584 2864 2
28.3658 30.5248 28.3647 2817 2
32.3026 30.147 27.5749 2872 1
34.5621 29.3874 27.0883 24982 1
33.2881 28.0143 28.5789 24984 1
32.0877 30.7427 30.2368 1993 2
35.239 29.2982 29.919 3752 2
37.6675 26.9092 26.9146 1951 1
39.3965 27.0215 29.1715 4664 2
37.2538 29.3365 27.5362 2831 2
38.2719 29.6071 29.897 2862 1
39.9598 29.869 28.2119 2873 1
42.5779 28.6297 27.6936 2069 2
43.7037 27.6066 30.2949 2941 1