ITEM: TIMESTEP    
90000     
ITEM: NUMBER OF ATOMS  
77888     
ITEM: BOX BOUNDS pp pp pp
17.607 132.393    
18.0782 131.922    
22.8567 127.143    
ITEM: ATOMS x y z id type
19.5583 20.5051 24.1675 72779 2
21.7248 21.2841 25.7596 977 2
20.7673 18.1511 25.7109 1839 2
23.9161 19.8275 24.9944 23170 1
26.3244 20.7846 24.8397 72824 1
24.4417 21.6431 26.102 1848 1
25.7913 19.6617 26.7953 22628 1
68.8439 18.0822 48.7825 7630 1
74.6181 61.0321 71.9159 27659 2
29.2985 20.7999 25.8104 20062 2
30.7106 20.4741 23.5808 2719 1
27.2544 22.5064 23.3155 978 1
28.1132 19.7345 23.0048 22548 2
74.9352 70.6958 29.1659 4480 1
33.2856 19.2057 22.9941 24988 2
32.1608 20.4257 25.5559 43709 1
34.9184 20.3847 25.0137 1851 2
33.1558 18.3015 26.676 23637 2
33.7292 21.0272 27.3443 2726 1
37.5285 20.7985 23.3312 22537 2
37.2734 21.7957 26.3939 1899 2
39.529 18.8287 23.2093 1904 1
74.8292 23.2909 72.1527 27552 1
39.79 22.5279 23.6143 2790 1
40.1955 20.4151 25.5341 1854 2
42.9046 19.2315 26.0362 23128 2
42.5409 22.3937 24.5909 40934 2
42.4147 18.354 23.2262 23153 2
41.8452 22.1309 27.0413 3665 1
44.9427 20.4622 24.2261 1099 2
47.7223 20.9015 24.5028 40834 2
45.9384 19.6427 27.0471 22576 2
48.1624 22.0944 26.9828 1908 1
50.3907 18.7487 23.9215 38521 2
50.4675 21.5952 23.9389 40893 1
49.6211 19.7088 26.7094 22529 2
52.4051 19.4427 26.5943 22574 1
51.266 21.9234 26.5668 1110 2
52.8875 20.645 24.3329 38365 2
55.6237 18.7896 23.749 21944 1
54.9174 19.6173 25.799 12513 1
57.1582 20.785 25.8636 13500 1
55.6783 21.3461 23.2643 39988 2
54.7217 22.4455 26.2517 23176 2
60.7454 21.68 23.7834 31298 2
59.8704 19.3308 25.6984 19184 2
59.6131 22.148 26.7873 31285 2
61.0681 19.0122 23.206 31004 1
58.1974 19.8562 23.4297 38509 2
65.4466 18.3667 25.9987 30999 2
64.9895 21.5873 25.528 21892 2
62.6334 20.1167 25.0537 31021 1
65.2569 19.5278 23.5135 30371 1
75.0839 26.4412 32.2322 12537 2
63.2287 18.2054 23.8812 31316 1
67.6367 19.8833 24.2682 31023 2
69.3102 21.2815 26.3208 19245 2
70.4707 18.4431 26.6402 38366 1
66.9804 20.4844 27.0996 20998 1
17.7297 46.0378 67.929 13042 2
71.5261 20.2074 25.1612 30996 2
73.7691 21.617 26.0972 12413 2
73.2219 18.1571 26.2308 21403 2
20.9667 24.0356 25.391 25062 1
19.3294 25.4417 24.6447 970 1
18.27 23.1968 25.0402 1928 2
20.7299 26.1585 26.7645 1885 2
22.0332 26.1436 24.1295 52493 1
74.907 55.5604 32.4886 21348 2
23.4776 25.8426 26.1379 1888 1
23.508 23.6848 24.3009 25024 2
25.668 25.2392 25.6904 1945 1
24.6859 26.7405 23.5069 25061 2
24.5808 23.8802 26.9972 1884 1
27.012 22.9347 26.066 1846 2
29.5338 23.3514 24.7254 1895 1
27.702 25.1427 23.9272 1943 2
29.1801 25.1087 27.1005 1944 2
30.9495 25.9423 25.0125 40920 2
30.9314 22.7109 26.5913 25026 1
32.4055 24.7183 26.712 25060 1
32.5905 22.8623 24.4273 989 2
33.9275 25.9579 24.734 1035 2
34.767 23.3616 26.6859 25027 2
35.5596 23.3556 23.9422 40928 2
36.9725 25.4414 25.5027 2729 2
39.4395 23.8981 25.9075 3770 2
39.6163 26.5809 24.3738 2836 1
41.4835 24.8883 23.976 1956 1
42.1156 24.7772 26.4106 2782 1
44.0865 24.9258 24.5928 41801 1
45.7018 23.0186 25.9185 43705 2
46.8211 25.9957 24.511 40939 2
45.0104 26.2179 27.0246 2837 2
46.6966 23.4434 23.0231 38643 2
66.0229 74.9386 69.4377 26536 1
49.0607 23.8068 25.2558 40989 2
50.6714 26.2323 25.3556 2020 2
52.1027 23.7516 23.9541 19180 2
53.5809 26.0623 25.1913 23642 1
55.4436 25.0072 26.844 40030 1
54.9727 24.2608 23.9182 40025 2
75.1805 33.202 31.6086 21110 1
57.4795 25.9004 25.4314 18330 2
57.9333 22.9208 24.5704 38629 2
59.8359 24.8488 26.1506 20148 1
60.3695 24.7136 23.5608 199 2
62.3284 23.3664 25.7285 19285 2
64.9257 25.0231 26.6472 20106 2
64.6532 23.9677 24.2381 18327 1
62.6045 26.3611 24.6277 19229 2
65.4029 26.7659 24.6454 18337 1
62.833 23.4998 22.86 30803 1
69.8086 22.4357 23.6177 31019 2
67.3412 22.3572 24.6912 31293 1
69.6501 24.6143 25.7684 1065 2
67.365 26.058 25.8199 19241 1
67.4804 24.9437 23.5084 31294 2
72.1466 23.1561 24.6606 12457 1
71.8167 25.9008 25.0276 30290 1
73.7683 24.5696 25.7278 43162 1
73.4842 25.1268 23.2252 44079 1
74.8694 22.7902 23.4752 39972 2
18.0473 27.2714 26.5699 63548 1
19.6451 28.5396 25.1217 1933 2
21.8384 30.8686 25.1594 1071 2
70.3669 72.0223 74.3575 26052 1
22.6653 28.1881 25.8586 63545 1
24.6862 29.5527 24.7217 1023 2
19.8842 18.0207 74.4708 52511 1
29.3668 27.3485 23.2708 41796 1
26.9677 30.0538 26.0504 40916 1
27.8102 27.5776 25.6051 39954 2
28.5838 29.7837 24.1448 19240 1
26.8146 28.6997 23.2552 986 1
30.5107 28.6459 25.0834 983 1
29.9325 27.7001 27.0841 1949 1
32.6283 27.939 26.8718 41845 2
32.9278 29.6715 24.3657 41885 2
33.7456 30.9531 26.5248 1033 1
37.5685 27.2833 23.3847 2779 1
35.6754 28.3501 25.7104 40926 2
37.9142 30.5115 25.7276 2010 1
37.8368 29.8693 23.2514 2000 1
38.4135 28.0861 25.5959 1083 1
42.4274 27.2494 25.3249 41842 2
40.7173 28.8391 23.1893 1907 2
43.6896 30.1122 24.9797 43703 2
40.5242 29.7879 25.9843 40975 2
37.6673 18.4358 25.3138 22536 2
45.108 27.8119 24.8643 40985 1
47.0646 29.9814 24.3805 41032 2
47.8028 31.1423 26.759 2942 1
48.857 27.8699 24.0284 41894 1
48.3433 27.5895 26.6044 40935 2
74.8358 63.9917 41.4991 24358 1
49.6532 30.1077 25.3614 1954 1
50.8333 28.9466 23.6705 42717 1
52.9075 28.5021 25.1241 40996 1
51.994 31.1774 24.5168 1163 2
51.1026 28.8483 26.8149 2027 1
55.1688 27.9524 26.5089 20144 2
55.25 30.637 24.5508 248 2
55.5342 27.4213 23.3555 19382 2
53.81 30.7599 26.8237 1164 2
43.2422 18.0967 42.5928 4571 1
59.9722 27.2665 24.7742 246 1
57.8822 28.9495 24.4881 19231 2
60.8825 29.6225 23.7759 2792 2
60.0663 30.81 26.8884 200 2
65.2112 75.0932 65.7939 28975 1
61.6941 28.6098 26.0773 19243 1
58.873 31.4053 23.969 1109 1
64.0404 29.0443 24.4372 19242 2
63.4871 30.8918 26.6877 20214 2
68.708 27.8132 23.4092 30998 2
69.9441 27.5676 26.5006 19186 2
67.2123 28.864 26.1488 12515 2
69.5787 30.1119 24.6119 43818 1
66.4233 30.4991 23.9285 30833 2
74.6651 27.4727 24.6426 30993 2
71.273 29.8843 26.0126 19294 1
73.5245 30.2262 25.1648 43804 1
71.7317 28.4085 23.7741 18339 2
72.6639 27.8486 26.379 18336 1
18.2943 31.4813 24.8513 63536 2
19.2597 34.4736 24.1726 1017 2
20.7759 35.366 26.5504 63543 1
20.767 32.3299 22.8476 74584 1
19.9901 32.7803 27.1448 1934 2
21.9846 33.7847 24.8048 1060 2
18.0587 34.9669 26.6572 2808 1
24.5144 32.4725 25.7402 63681 2
24.559 34.6649 24.2257 43702 1
23.206 35.0904 26.6743 1069 1
74.7603 29.3289 65.3264 29828 1
26.7421 34.2022 24.8404 1070 1
27.952 32.2879 25.7419 40965 1
28.9161 34.0453 23.6462 1031 2
26.8174 31.7004 23.4873 40917 2
29.5873 33.8738 26.3624 2916 1
30.4642 31.7199 24.9617 1940 2
69.8224 17.9575 38.5074 9335 1
34.4999 33.9091 26.3301 24974 2
33.0225 32.3788 24.6499 984 1
31.7049 34.6359 24.6375 1029 2
35.7289 31.3751 24.53 41893 2
39.1085 32.4534 24.3062 1199 2
36.7283 34.6899 24.284 41937 2
39.4327 34.7273 26.431 20283 2
37.0778 32.989 26.4639 1080 1
39.4615 35.1148 23.7995 19202 1
41.5345 31.4825 23.868 42701 1
41.628 34.2269 24.5198 2002 1
43.7583 32.9047 23.167 41848 2
42.0658 32.427 26.3665 2004 2
44.0966 34.9786 25.4561 2990 2
42.1612 35.2379 27.0553 2944 1
47.1812 34.8861 25.2211 2067 2
45.507 32.3152 25.9437 43700 2
46.8953 32.7015 23.2139 197 2
49.1125 32.7982 25.3404 237 2
49.6387 35.6173 24.7774 41035 1
51.7791 33.9402 26.0693 2022 2
51.2598 33.6631 23.3161 291 1
49.3555 35.1727 27.0533 236 1
50.7924 31.3689 27.0972 42715 1
56.3521 34.971 25.3707 19334 1
54.2361 33.71 24.2084 20251 2
54.8136 33.6005 26.7559 249 1
57.2083 32.2659 26.0244 2077 2
58.5293 34.0796 24.2117 241 2
61.0478 35.4661 23.2755 1111 2
61.4822 32.4854 24.5857 1112 2
59.5876 33.8793 26.8006 19233 1
61.8162 34.8546 25.8903 43165 1
64.2887 32.2274 24.27 18380 1
63.8814 33.8141 26.2725 19341 1
64.0525 35.2539 23.9524 19232 2
66.0247 35.3337 26.132 19339 1
66.3202 33.6039 24.3613 19288 1
66.37 32.3166 26.5066 19289 2
68.3971 32.0255 24.8117 20162 1
68.5527 34.123 25.7764 19293 1
73.6949 32.2334 23.7231 19297 1
71.2269 32.4795 24.9932 19246 2
73.2323 34.8229 24.1614 43988 2
74.6067 32.7062 26.4881 19301 2
20.1037 37.2447 24.8471 63542 1
19.5301 40.0575 24.6649 63537 2
22.2645 38.6318 26.295 1979 2
22.592 36.8556 24.1814 1988 2
25.051 38.9649 25.0537 2036 2
25.4104 36.3479 26.1133 1075 2
24.8718 36.9535 23.1258 2034 1
29.4125 36.4984 26.0888 1074 2
27.5214 36.9512 23.7073 41015 2
29.968 39.2731 24.7112 1028 2
27.716 38.7436 26.5294 1122 2
17.6678 66.7869 63.4254 29585 1
34.9394 37.0265 25.9072 2829 2
31.9565 37.6645 25.3262 1079 1
33.5258 36.635 23.8758 41936 1
32.9454 39.151 23.1794 1135 2
38.2927 37.296 24.7982 41068 2
41.4303 36.6852 24.9273 40988 1
43.275 38.564 23.5239 1204 2
43.3267 37.442 26.3944 2066 1
40.5081 39.358 25.1343 41984 2
45.4572 38.6897 25.9267 41031 1
48.0402 37.8223 25.6705 330 2
46.8363 39.5305 23.548 286 2
45.3988 36.9037 24.356 1159 1
52.2371 36.0838 23.8656 1155 2
51.1137 37.2587 26.5427 1162 2
50.0215 39.7851 25.2785 290 1
49.673 37.882 23.2512 40108 2
75.1951 67.4889 67.1222 25282 1
52.7264 39.1202 24.9262 18473 2
53.7055 35.7564 26.4583 1208 1
55.065 37.308 24.5048 20297 2
54.9674 39.2389 26.8266 388 1
56.4655 36.9496 26.9266 19276 1
75.1875 70.92 47.6486 26228 2
60.4252 38.7177 23.6429 18381 2
58.9198 36.3228 25.7495 2121 2
57.7233 39.2838 25.6004 18430 2
60.274 38.7962 26.4845 18376 1
57.9658 37.1327 23.2298 288 2
61.6247 37.1161 25.3204 1119 1
62.9567 39.457 25.9422 19286 2
63.7115 36.5954 26.1905 20213 1
63.2077 37.7916 23.6253 19236 1
65.7785 38.0598 24.833 19281 2
65.5306 39.8125 27.014 20260 1
64.7509 39.7229 23.1593 44031 1
70.2126 35.8996 24.518 19349 2
67.4547 35.8368 24.0336 20215 1
68.3962 38.2073 24.2828 19290 1
68.0502 39.4335 26.553 163 1
68.4195 36.6447 26.9577 19291 2
70.5081 38.5995 22.9277 18383 1
74.5926 39.1226 24.1749 18489 1
70.6242 38.8863 25.9865 18437 2
72.2451 36.3929 25.9322 25899 1
73.7648 38.3751 26.5582 19352 2
72.6092 37.673 23.9599 18386 1
19.1091 42.3023 26.2733 63648 1
20.0653 42.8025 24.0736 63678 1
21.54 41.6362 26.6823 63529 1
22.4452 40.5511 24.4628 2045 1
23.8389 40.7257 26.7183 2039 1
22.7021 42.9595 24.6853 21093 1
24.9784 41.9708 23.9997 41066 2
24.4159 43.37 26.8619 63091 2
26.4568 44.0745 25.3354 2969 1
26.6579 41.3829 26.4018 2037 2
29.9291 41.6001 26.9423 25055 2
28.5502 42.4982 24.4642 43701 2
17.5543 46.0903 60.0835 62173 1
31.4765 43.6431 25.4012 2090 2
32.0362 40.4401 25.5155 41941 1
31.0996 41.7629 22.994 41883 2
34.0554 42.3537 25.0177 2051 2
32.6683 42.14 27.4402 1994 1
38.4108 39.8637 23.0133 41072 2
35.5814 39.8194 24.7864 1998 2
38.0984 41.0133 25.6102 1202 1
36.356 42.1197 23.2943 2056 1
39.7745 42.5127 23.8285 3133 2
37.096 43.7148 25.3126 41939 2
38.2861 42.3762 27.4384 41078 1
35.9004 41.4888 27.3712 2053 2
42.2086 41.3268 24.2426 1200 1
40.9242 42.1216 26.8204 1198 2
43.3567 40.3586 26.134 25047 1
43.5302 43.3172 25.8102 1251 2
44.7056 41.0962 24.2592 25049 1
46.6665 41.0877 26.204 2119 2
46.3686 43.3958 24.3816 1254 2
47.6139 44.0903 27.3536 1253 2
49.0303 41.7317 23.6134 41038 2
49.2189 42.0675 26.3033 2113 1
51.7454 42.2362 25.1405 289 2
49.4554 44.5763 24.7716 340 2
54.3073 43.8141 24.0195 1307 1
55.1467 41.2492 24.873 18427 2
55.0776 43.5133 26.2811 39218 1
57.179 44.1597 23.2484 1350 2
53.5945 41.8678 27.1094 20299 1
18.1072 23.2085 32.7949 2758 1
58.1526 41.2507 23.3321 19282 2
57.6537 42.7849 25.9707 19337 2
60.3294 41.2406 25.4038 20206 2
59.6009 43.834 24.4299 1255 1
61.6006 43.7541 26.1215 20298 2
61.7009 43.2718 23.4986 18479 1
62.4931 40.921 23.7818 18379 1
64.2782 42.129 25.659 19338 2
63.7979 44.1824 24.1382 18435 1
66.475 43.8318 23.9642 19384 1
66.6625 40.9646 24.8208 18433 2
69.6344 40.9137 24.2269 18439 2
68.4305 43.1445 25.3992 19396 1
69.6211 41.465 27.1754 19340 1
70.5372 43.7383 25.1419 19389 1
72.2082 40.104 23.841 18443 1
71.7363 41.4343 25.7386 20353 1
74.435 41.4255 25.6212 20361 2
72.3854 42.7998 23.2174 19401 2
73.1899 43.9818 25.6993 2141 1
21.5286 44.8129 23.1708 48570 2
21.2237 44.2383 26.1459 63528 2
18.7464 45.0305 25.3006 63282 2
18.7464 47.8993 26.4718 63280 1
21.5208 47.1545 25.0025 53468 2
24.2954 45.4501 24.5344 63650 2
24.073 48.058 25.7874 2088 1
25.2414 48.5219 23.4706 41060 2
27.5543 46.4212 24.3321 41064 2
29.8491 45.3415 24.7204 2049 1
30.2997 48.5391 24.9611 41946 2
28.6355 47.081 26.7013 1131 1
30.8097 46.3989 26.6882 2046 1
32.7219 46.2764 24.4705 2157 2
35.0866 45.4487 25.7147 3952 1
32.4185 48.1637 26.6098 2922 1
35.0919 48.1256 25.3849 2095 2
33.2005 45.9897 27.1696 2979 1
39.177 45.8866 23.8791 41124 2
36.4515 46.3793 24.1394 41990 1
37.7386 46.7686 26.344 2159 2
39.1942 44.531 27.091 2156 1
41.0749 44.4765 25.3164 1249 1
41.7429 47.3289 24.3187 1293 2
40.5277 46.8189 26.6692 1292 1
43.1712 46.0139 26.0707 2162 1
44.3679 48.1261 24.5628 2169 2
45.7168 45.8896 25.6552 381 1
46.0304 47.4793 27.0513 21219 1
44.2009 45.2185 24.017 1257 1
47.8719 46.5915 25.4807 385 1
48.2685 48.5204 26.8535 2214 1
49.57 47.056 23.151 1305 2
51.8359 44.7659 23.7797 2120 1
51.7373 46.8401 24.8578 1345 1
52.8914 44.8674 26.3562 25040 2
55.9805 45.7708 25.3613 1306 2
53.7617 46.2019 23.6677 1264 1
56.066 48.4565 23.3657 19426 2
54.1076 48.4628 25.778 19428 2
68.079 18.2561 26.4086 30809 1
57.2004 48.5726 26.305 21280 2
59.0027 45.5875 26.3814 1303 2
58.6983 46.9774 23.6069 20346 2
61.6588 46.2525 24.1983 20338 2
61.7257 46.7281 27.0741 259 1
60.445 48.6889 25.5743 2172 2
63.6636 45.8405 26.1636 20304 1
65.0403 46.6716 23.922 19386 2
62.7649 48.4371 22.9849 1274 1
63.4922 48.6521 25.8979 18534 2
66.3736 44.8763 26.2875 21284 2
66.4366 47.4744 25.8262 25875 1
68.2925 45.9619 24.3576 21192 2
69.172 48.3207 26.3239 19439 2
69.7901 48.4466 23.0978 18476 2
74.6499 46.3511 25.7604 20313 2
71.4222 46.4325 25.5716 19436 2
73.0599 45.478 23.5101 18542 1
70.6925 45.3121 23.1232 19395 1
19.4763 49.5029 24.7186 63274 2
18.0524 52.2021 24.8285 54461 1
20.4103 52.0949 23.4404 63632 2
21.7485 49.8847 26.8801 48858 2
20.5372 53.0552 26.3282 63060 2
18.7515 50.7922 27.2652 63275 2
24.2652 50.3863 26.1194 63527 1
22.5396 50.0466 23.8595 48669 2
25.8114 51.4545 24.0596 2085 2
22.6984 52.1233 25.2835 63486 1
28.1242 49.2839 23.5338 41062 1
26.8568 49.2589 26.0125 63281 2
28.873 51.2986 25.2987 24951 2
34.9142 50.1868 22.9811 41077 2
30.6405 52.5951 23.6587 2040 1
32.8065 49.7754 24.8762 41115 1
31.3099 51.265 26.0245 40237 1
34.9384 51.0442 25.899 41120 1
33.2491 52.4723 24.5882 2048 2
37.2242 48.7833 23.6845 2155 1
37.1278 52.1284 24.4191 378 2
37.039 49.8527 25.8929 63642 1
39.5012 49.1699 25.1184 1294 2
38.6655 51.0005 27.1946 1336 1
41.8224 52.8787 23.2189 431 2
40.1873 52.3164 25.5468 1339 2
42.4291 50.1155 25.6537 2200 2
47.4377 49.1323 23.7665 41079 2
44.3578 51.4762 23.7642 383 2
45.6225 49.9387 26.259 1295 2
46.8225 51.9503 24.5952 2240 1
48.3529 50.8507 25.863 394 1
46.0685 52.884 27.0988 1389 2
50.3908 48.994 25.5762 2213 2
49.3536 52.0626 23.627 3092 2
52.3611 51.0179 24.4738 25001 2
52.5175 50.0617 27.0101 1301 1
50.3969 52.0745 26.9841 4065 2
18.0523 18.2417 42.1021 22717 1
55.5143 51.2579 24.6026 1268 2
53.3854 53.0284 26.6539 25885 2
57.8007 51.3499 26.1258 1310 1
58.3021 49.7837 24.1056 19470 1
59.7087 51.8008 24.7206 3150 1
60.6271 50.9601 27.303 20342 2
62.4459 51.1754 24.501 19483 2
65.0296 51.0723 25.5908 20397 1
64.8035 52.2971 23.2503 18526 1
65.2074 49.5453 23.3135 20344 2
67.5422 49.3354 24.6 25042 1
67.2811 52.0511 24.8071 19482 2
70.1772 51.2139 24.2409 19488 2
69.0521 50.9073 26.5123 1224 1
66.4005 49.7244 27.4247 20351 2
72.894 48.494 24.169 19445 2
71.7734 49.4011 26.6634 2268 2
72.7127 51.6624 24.6148 19532 2
74.7753 50.4904 25.6405 25871 1
19.0057 54.895 24.7509 63500 2
20.9037 57.3406 25.5695 48680 2
18.0207 56.6263 26.8008 50587 1
22.1274 54.7192 24.1542 63481 2
24.5749 53.5461 25.2343 63235 1
24.0169 56.6777 24.2536 63634 2
22.2536 55.0978 26.8199 63046 1
23.4814 57.3522 26.9044 63485 1
25.2559 55.3927 26.813 63188 2
60.9344 74.9562 56.1001 28043 1
26.8739 57.0713 24.4565 63479 2
27.6385 53.8154 25.3753 2089 2
29.5579 56.7627 24.9489 3022 1
30.5332 54.1838 25.8039 40239 2
28.4907 56.5584 27.2102 2195 2
33.1898 55.1446 25.8735 41977 1
32.1448 55.2225 23.3392 42703 2
35.1953 54.7389 23.8683 41126 2
37.5996 54.8686 24.8446 477 1
36.121 56.665 26.6037 376 2
37.2505 57.1641 23.5669 1338 2
39.4189 54.1015 23.626 25067 1
39.2237 56.429 26.1903 3191 2
35.4765 53.5995 26.5321 41170 2
43.169 53.1842 26.051 1388 2
43.1006 55.4157 23.7474 435 2
41.116 54.7069 25.2194 19545 1
43.2522 56.0775 26.9428 2289 2
41.6364 57.1708 24.9635 481 1
45.4103 54.2375 24.5837 1386 1
47.8367 56.4644 23.3571 1348 2
46.0171 55.6818 26.5766 1347 1
47.5733 53.9043 23.1463 438 1
48.3556 54.3212 25.786 1297 2
49.9331 56.7878 25.7501 20463 2
51.2296 53.5839 24.8815 19565 1
52.4205 55.4329 25.2367 1399 1
50.6738 54.6315 27.041 1394 1
26.1228 18.2821 24.585 22740 1
55.4332 54.2894 25.1349 19469 1
54.3073 56.473 23.3528 20435 2
53.4024 53.8062 23.9099 1352 1
57.0212 55.6352 23.9229 19517 1
47.2028 36.6145 22.9589 1197 1
57.6669 53.1516 24.6675 1267 1
59.3521 53.3499 26.6798 19379 1
59.7141 54.8565 24.1579 20390 2
58.1594 55.7987 26.483 25887 2
60.9243 56.973 25.1492 25865 1
58.8347 57.3125 23.9867 18630 1
61.9139 53.7423 25.812 19476 2
64.9921 53.8619 25.6644 19486 2
63.6898 56.3381 25.1588 19570 2
62.8648 54.3203 23.0257 18633 2
65.7398 54.7269 22.9537 19581 2
67.4632 55.0014 24.988 19585 1
69.7856 54.132 25.777 19524 2
69.108 56.7354 23.2035 19586 2
68.8962 57.0411 26.592 19626 2
68.594 54.0614 23.135 19523 1
72.666 54.2156 25.458 20402 1
73.7741 56.511 23.8539 20444 2
71.3291 56.4739 25.4406 20488 1
74.6569 55.287 26.5308 20446 1
28.7361 18.1399 47.4996 6442 2
73.7844 52.8787 27.1461 20447 1
71.5238 57.5242 22.9717 19584 1
18.0841 58.0093 24.6815 63187 2
19.1857 60.6561 23.2784 53700 2
21.6518 59.6936 24.353 63438 1
19.6199 60.0774 25.8303 63040 1
22.1724 59.9363 26.9118 63183 2
24.342 59.3612 24.8823 63433 2
22.734 61.366 23.196 63598 1
26.2245 58.5054 27.2385 53648 2
26.5524 60.8566 26.1258 63042 1
29.1433 59.3996 25.4286 63272 2
29.303 60.7418 23.2316 53557 1
27.0843 59.7696 23.9236 63410 1
31.5115 57.4916 26.509 2982 2
31.0411 60.9053 26.3715 3012 1
31.4415 57.9382 23.3794 25023 2
34.1317 57.5684 24.4823 428 2
33.1819 59.4802 26.1739 24941 1
32.1025 60.7817 24.0269 1382 2
35.0662 60.2992 24.4461 24999 2
37.5727 59.429 25.9358 1385 2
37.5661 60.2763 23.2731 426 1
39.2782 62.0678 24.6842 24937 2
39.8776 59.1418 23.9635 429 2
40.6992 58.7151 26.6771 2333 1
41.9266 60.7514 25.3027 19607 1
43.151 58.7146 26.1228 1387 1
43.0033 59.1688 23.3231 479 2
45.0668 57.2482 24.4648 1390 2
47.3438 57.4715 25.6955 1393 1
45.4976 60.365 25.1677 1445 2
48.273 59.326 24.2483 1447 2
48.1812 59.5199 26.862 2294 1
66.3042 18.0902 28.9841 12539 2
51.6932 57.8443 23.5192 491 1
50.7625 60.0393 25.3273 19569 2
52.7902 58.0651 25.8135 1398 2
48.2381 61.6195 25.5824 1444 1
56.1675 58.0405 25.3888 448 2
53.4294 60.6805 26.1407 24996 1
54.1728 59.6684 23.7402 20473 2
57.3977 60.9778 24.2024 19618 2
52.7213 61.9548 24.048 2342 1
59.1619 58.7861 26.0448 444 2
61.0234 60.8376 24.9458 20476 1
59.5825 59.6627 23.0904 19575 2
62.3348 59.0243 24.3662 19572 1
64.5976 59.3548 25.5524 19520 1
63.3717 61.4391 23.8824 19580 2
63.2086 61.1746 27.0384 19623 2
66.6821 57.5953 24.5927 1420 2
69.4997 59.777 24.6913 20487 2
67.5042 59.3721 26.3684 20483 1
66.5012 61.0544 24.5008 546 2
74.1174 60.978 26.2873 20497 2
72.4655 59.5348 24.4649 20485 2
73.799 57.7391 26.6923 20489 2
71.4312 61.5985 25.8466 21396 1
17.46 52.9153 47.9208 7633 2
71.1255 59.3328 27.3233 20537 2
17.8528 62.4532 25.6358 55544 2
21.2072 62.3904 25.0384 63425 2
20.9812 65.326 24.4537 54635 2
18.2619 65.1103 25.2262 55588 1
19.0904 63.6048 23.343 53783 1
24.3862 62.3234 25.4791 54632 2
23.7666 64.1175 23.4624 63600 2
25.9067 64.9843 25.3386 63028 2
22.851 64.5333 26.2816 48872 1
27.767 62.6007 24.55 63227 2
28.7379 65.495 23.4954 5799 2
28.8501 64.975 26.5262 63176 2
26.7241 63.3346 27.0045 63043 1
74.9513 40.9894 34.8259 22062 2
30.7744 63.3145 24.7442 24954 2
34.0137 62.1186 26.6534 3025 2
33.7238 63.5245 24.0568 19499 2
32.8928 64.6384 26.2167 2284 1
33.7652 66.1206 24.4566 24853 1
48.7459 70.1876 23.2083 1535 1
36.6255 61.9361 26.4132 20458 1
36.5597 62.8823 23.6075 2288 2
38.8795 65.1908 24.3672 2328 2
35.8972 64.7349 25.9104 3184 2
42.0105 62.1717 23.3476 25906 1
40.6829 63.9758 23.1032 2286 1
41.6419 63.4715 25.9291 1439 2
41.8524 66.3273 24.4625 572 1
44.013 65.3399 25.2692 1442 2
44.001 62.7263 24.8904 1391 1
47.1829 61.7667 23.3306 1395 1
46.7772 63.8537 25.7113 1443 2
48.4934 65.9884 24.129 1446 2
45.9126 65.8086 23.3783 525 1
45.7063 63.5516 23.3465 19616 1
49.7462 62.7723 23.6314 19660 2
49.5767 64.1312 25.9333 25036 1
51.7355 65.6174 24.3398 2381 2
51.9727 63.0086 26.3196 19617 2
54.9895 62.2291 25.2736 25862 1
53.9735 64.0501 24.3142 19665 1
56.35 63.5078 26.795 20518 1
53.9345 64.794 27.0091 1490 1
54.8116 62.3132 22.8156 18770 1
56.846 64.1249 24.366 20521 2
60.1346 65.4877 25.1099 19670 2
57.4412 65.7972 26.2744 20522 1
59.082 62.4107 26.0995 20525 2
60.1585 62.911 23.2132 18729 2
61.8345 63.244 25.6387 25860 1
64.7767 63.6306 25.0793 19625 1
62.8007 64.174 23.6882 1455 1
65.1596 65.6813 23.9204 2354 1
62.9933 65.4604 25.8689 19624 1
66.2527 65.5862 26.5253 21433 2
66.9128 63.9221 23.7177 602 1
66.7993 63.0784 26.0523 20533 1
69.7268 63.302 24.5253 20527 2
68.774 64.5589 27.1165 25854 1
68.5247 66.0702 24.4809 18736 2
71.0272 65.319 23.2439 1461 1
72.7457 63.1629 24.1081 19679 2
71.6417 65.6866 25.6571 21693 2
74.5872 65.1209 25.3419 22590 1
22.0983 74.8682 44.843 19682 2
18.0147 69.2653 25.5018 63016 1
18.4557 66.8045 26.8942 50692 1
19.197 67.2307 24.6607 54678 1
19.6451 69.8763 23.342 54856 2
21.5198 68.242 24.2515 63142 1
21.1269 67.286 26.7884 63177 2
20.3885 70.7193 26.4876 54810 2
17.611 68.1258 23.0195 50596 1
23.3978 66.567 24.5685 63141 1
23.3616 69.0387 26.3379 54677 2
25.3837 67.6453 25.2945 63140 1
25.8525 70.0783 25.5208 63124 1
24.2958 69.2841 23.1715 48693 2
22.2678 70.5798 24.3997 63128 1
27.9486 67.9059 25.7435 63144 2
26.8907 69.0667 23.1313 55682 1
30.1742 69.8318 25.0973 63139 2
29.0492 68.2157 23.4886 1383 1
31.1588 66.9139 25.5378 63037 2
33.5889 68.3381 24.7395 48819 1
32.6839 69.7274 26.7391 4408 2
35.0756 70.4478 24.2781 21775 1
38.277 66.4565 26.9273 2332 1
36.3063 67.56 25.1583 2373 2
37.8313 70.1374 24.0782 4204 2
38.9566 70.4564 26.6579 2419 1
35.5104 69.8864 26.4591 3598 1
49.6306 18.1837 67.821 16334 1
39.9614 68.062 25.54 1482 2
42.6962 68.6595 25.1431 579 1
22.8619 74.7071 35.1314 5360 2
44.2833 70.1794 24.65 530 1
45.6822 67.8768 25.4389 578 2
48.1098 66.4812 27.0803 19614 2
44.4917 70.3361 27.2434 1483 2
46.6934 70.2738 24.6406 3300 1
48.3225 68.6936 25.0538 1528 1
37.7439 74.9174 33.4326 5421 2
50.1935 67.5164 25.3374 2338 1
51.3756 69.7591 24.1915 1488 2
52.5708 68.0028 25.7942 2427 1
50.3157 69.654 27.0566 24995 2
54.9521 66.5566 25.3887 2430 2
53.9416 70.1465 26.3456 1533 2
56.1931 69.533 24.7238 2425 1
53.8487 68.4973 23.1396 19710 2
60.3737 68.8369 24.3384 19718 2
59.009 67.5557 26.6599 20569 1
58.4463 69.8392 25.8937 25855 1
57.7203 67.3288 24.019 25882 2
58.1719 70.7906 23.3598 19667 2
61.7879 67.6079 26.1246 20571 1
74.9009 43.9828 63.8345 29283 2
62.2795 66.7211 23.473 18779 2
64.3808 67.8515 25.4781 20529 2
62.9436 70.0336 26.9613 21735 1
65.5037 70.8737 24.998 20824 2
66.3082 68.2639 23.2374 21739 2
69.947 68.558 25.6298 25816 1
68.9518 69.1886 23.6083 18741 1
67.2958 68.5927 26.0774 22589 2
73.1798 68.538 24.7535 2592 2
71.0753 70.4224 24.0821 21785 1
70.8292 67.6261 23.6571 2396 1
74.032 69.5226 27.1621 21748 1
18.6206 73.5467 26.3879 54859 2
18.2539 71.8224 24.2584 63105 1
21.4195 73.6439 25.1179 63116 2
18.8443 74.5168 23.378 63363 2
23.2386 72.0581 26.1097 63010 1
24.3302 72.0215 23.6955 63118 2
25.8007 72.8457 25.8038 48908 1
26.5103 74.0082 23.4887 3538 1
28.5313 73.3498 25.8366 4507 1
27.582 71.5487 23.9115 63125 2
28.7887 74.0462 23.3901 24854 1
28.0775 70.8686 27.1925 4452 2
33.3803 73.4069 23.1501 4512 1
32.6708 70.6555 24.0798 4458 1
30.8927 72.6206 23.9466 3587 2
33.7497 72.5279 25.8023 3599 2
23.5196 74.9044 39.1359 5410 1
35.9045 74.396 23.9183 3602 2
38.6432 73.0203 23.8629 22511 2
36.6538 71.992 25.5338 3597 1
39.5306 73.0042 26.6801 4520 2
42.6735 72.805 23.3883 577 2
41.0108 70.8607 24.8078 2374 2
42.6977 72.802 26.5392 1532 2
40.7281 74.3829 24.7372 19699 1
45.3117 74.7828 26.2244 21842 1
48.1701 74.9009 25.3608 1531 2
45.3526 72.4833 24.8772 1487 2
46.6828 72.5301 27.1502 2424 2
70.5165 75.0025 30.8203 11266 2
49.1332 71.733 25.2529 2426 2
51.9785 71.8592 25.6928 2431 1
50.9821 73.8171 25.5294 21736 1
57.0769 18.1958 64.7684 29912 1
52.8007 74.4615 23.5774 22631 2
54.7085 71.4821 23.4945 25821 2
55.4963 74.4497 26.4315 21729 1
56.7844 72.1334 25.8524 21476 2
53.942 73.0174 25.7147 21526 1
55.488 74.124 23.786 12850 1
61.3721 74.9629 26.5401 21776 2
57.8068 73.4541 23.4319 2432 1
58.2735 74.6815 25.8542 20618 2
60.3935 71.7656 25.5733 20619 2
60.508 73.9962 23.4685 21788 2
62.7174 70.6149 24.7522 25856 1
63.3511 73.3998 24.6884 22588 2
68.6447 71.1902 25.8062 21737 2
66.4781 73.5188 23.973 21781 2
69.8173 72.3933 23.0806 22688 2
69.0521 74.5678 25.5661 21787 2
67.2483 70.8822 22.9358 21740 1
71.4902 70.7029 26.8638 22642 2
71.6343 74.6911 23.622 20880 2
71.5462 73.4981 25.9412 25817 1
73.3162 72.2915 24.2697 20834 2
74.0716 72.281 27.1012 21791 2
19.3196 20.254 27.6126 1881 2
20.9781 19.0656 30.3752 2716 2
21.6784 21.1973 28.9805 25064 1
19.4532 22.1408 30.2827 20051 2
25.7722 18.1572 29.1406 784 2
23.1211 19.3262 27.6325 20009 2
24.7912 21.7394 28.7331 24990 2
23.6724 18.3263 30.6153 2718 1
23.6741 20.8261 31.2433 3701 2
26.6701 21.1558 30.5468 2772 1
27.6785 21.2191 28.1331 2717 2
28.6204 18.8624 29.8592 1847 2
29.4838 21.3348 30.3035 2776 1
31.0669 20.3555 28.1886 1891 2
33.4481 20.4293 29.5244 987 1
31.4652 19.8884 31.3695 3653 2
35.7097 19.522 27.5313 20120 1
36.1835 18.446 29.6319 3659 1
38.365 19.5055 28.2259 21910 2
39.4738 21.9694 27.6779 3657 1
36.2006 21.4928 29.3662 1900 2
38.7447 19.2267 31.1939 3663 2
39.1154 21.8469 30.2048 3662 2
44.1352 21.3553 27.4649 21871 1
41.6623 20.2293 28.7382 22582 2
43.4123 22.4191 30.0446 2784 2
40.8179 68.419 23.0266 526 1
45.1184 20.2847 29.5664 12875 1
47.9306 20.4415 29.3519 23264 2
48.4337 22.7645 31.2303 2736 2
50.3484 21.5689 29.0535 21895 1
49.8863 19.8926 31.1959 22528 1
52.4796 19.8696 30.7508 21898 1
51.1214 18.7 28.9705 3670 2
53.0953 21.7334 28.8408 2785 2
55.7459 20.8769 28.0254 23127 1
55.2796 20.5736 30.5696 22564 2
54.271 18.5106 28.1007 22533 2
57.4984 18.7878 27.5234 11602 2
61.2203 18.2215 30.4202 22527 2
58.0627 21.5142 28.8155 23632 1
58.4418 19.5044 30.8699 21893 2
59.6421 19.8064 28.5418 20993 1
60.6245 21.6982 30.2603 20141 2
57.7823 22.4599 30.9083 12459 1
62.0472 20.6464 27.8286 38322 2
63.4002 18.3801 28.9186 12512 1
64.6031 20.0422 27.8041 12897 1
63.3806 20.5041 30.4868 25850 2
65.3945 19.0622 31.4986 31025 1
66.3825 21.1348 29.6924 11550 2
69.0946 19.4173 28.7179 30802 2
70.6033 20.6195 30.7376 1659 1
18.0223 54.9613 64.7931 13136 2
74.3056 18.2284 29.2392 12895 2
72.1039 20.1405 28.5364 22613 2
74.7007 21.5558 29.2868 30808 2
72.704 19.7584 31.0622 12506 1
72.1005 22.5442 30.511 11516 1
19.6966 22.7085 27.2767 1887 1
19.7261 24.3989 28.8225 1930 1
21.5585 25.7636 29.3829 2818 1
22.3935 23.3794 30.617 1841 2
19.8745 25.0928 31.5132 2809 2
22.1599 23.341 27.6406 1886 2
24.0445 25.387 29.03 976 2
25.654 26.1545 30.7994 21001 1
25.4413 23.5181 31.1308 2770 2
26.9479 24.6245 28.6134 1889 2
29.7274 22.953 28.675 936 1
29.5378 24.8495 29.8811 2771 1
28.1953 23.0864 30.7004 24989 1
27.8501 25.5189 31.4491 2764 1
32.4756 22.748 28.9337 2775 2
31.6641 25.7778 28.8246 1946 2
33.4449 25.3826 31.0934 2825 2
34.7188 25.866 27.9904 25028 2
34.931 23.7993 29.3462 2778 1
30.9897 23.1265 31.5396 2724 2
37.7483 24.1019 28.4565 25025 2
36.5248 23.5052 30.9383 5526 1
36.3201 26.0811 30.2901 2828 2
39.5199 26.9725 30.0616 4664 2
43.6973 23.9514 27.9999 22532 1
40.8272 23.9901 28.8411 23152 2
42.342 26.3549 28.6774 3759 2
39.9487 26.6841 27.2154 1958 2
41.4935 25.0597 31.2141 2835 1
47.4212 24.8149 27.1274 1153 1
46.0562 22.95 28.8312 4627 2
44.7373 25.4725 29.6922 21900 1
47.2971 26.3098 29.2726 2786 2
46.4832 24.4701 31.1061 3720 1
48.4878 25.4451 31.4777 4629 1
52.6782 24.5795 27.1438 2024 2
49.6176 24.1194 28.6539 750 2
50.7473 24.9411 30.9726 710 1
52.5744 24.566 29.7997 21056 1
50.5075 26.7495 28.5642 1107 2
57.2957 23.3426 27.0434 23172 1
54.3145 25.9111 28.8248 42770 1
57.0113 26.7035 28.6972 40027 2
55.7275 23.4263 29.2096 30857 2
54.9419 26.0725 31.3901 1056 2
53.9989 23.3883 31.3062 2851 1
57.6058 24.9913 30.8785 2028 1
59.0302 24.4691 28.7636 20098 2
61.6865 23.4136 28.317 20104 1
61.525 25.4793 30.1349 20201 1
61.9174 26.1515 27.6256 713 2
59.4641 27.108 30.6817 3827 2
62.667 23.4415 30.6464 20096 1
64.1446 22.8354 28.4212 20100 2
64.4423 25.9208 29.9157 19684 2
67.246 23.4808 27.0945 31002 2
69.1485 22.6607 29.6467 12867 2
66.6742 24.1859 29.5286 12414 1
70.0339 25.5587 28.5613 19196 2
67.0813 26.4737 28.3977 25879 2
68.1566 25.2051 31.4543 12419 2
72.477 25.747 27.3914 19299 1
70.701 24.766 30.9908 20160 1
71.6814 23.004 27.5966 22672 2
74.2758 23.82 27.8498 20157 1
73.3462 24.9815 30.0933 1651 2
74.6136 23.02 31.6904 12890 1
20.6206 29.1873 27.8065 63546 2
18.8299 26.8619 29.0557 2763 2
19.1093 29.8451 29.9914 1982 1
21.4132 28.3854 30.4201 2859 2
19.1333 27.6949 31.5913 2812 1
25.2871 27.5802 27.2186 1025 2
23.6269 30.2363 27.8257 1018 2
22.7347 27.6086 28.1921 1929 1
24.6016 28.3798 30.0584 1941 2
25.3361 30.9391 30.1985 1986 1
26.3801 29.6382 28.2695 25059 1
28.9308 30.1397 27.4836 1947 2
27.7961 27.5934 29.2367 2769 2
28.2384 30.6 30.6669 2817 2
30.7575 28.3343 29.5691 2864 2
30.6757 31.2124 29.2789 3749 1
31.5018 30.2065 26.901 2872 1
33.7978 27.6457 29.6883 24984 1
33.2643 30.3353 29.1825 1993 2
35.2631 28.5344 28.1669 24982 1
37.3226 26.8888 27.8639 1951 1
36.0037 30.9075 27.5595 4713 1
35.7821 29.1514 30.7113 3752 2
37.9354 29.2623 28.2144 2831 2
38.6462 29.5037 30.9387 2862 1
40.3977 29.6818 28.8595 2873 1
42.7044 29.0228 28.05 2069 2
44.0861 30.2917 30.1993 2789 1