ITEM: TIMESTEP    
130000     
ITEM: NUMBER OF ATOMS  
77888     
ITEM: BOX BOUNDS pp pp pp
17.607 132.393    
18.0782 131.922    
25.1487 124.851    
ITEM: ATOMS x y z id type
19.8472 20.5938 25.7137 72779 2
19.5911 19.8794 29.1606 1881 2
21.9064 19.4105 27.8249 1839 2
21.9948 22.5182 27.2483 977 2
24.9342 19.3959 26.5653 23170 1
24.0935 21.0865 28.2597 1848 1
26.1066 19.9515 28.8244 22628 1
24.4271 21.6394 25.9757 926 1
27.3754 18.7512 25.9241 72824 1
30.0719 20.3055 27.6576 20062 2
27.1983 21.6982 26.933 1846 2
28.2556 18.5572 28.7211 1845 2
32.9885 20.7871 27.0496 43709 1
32.0847 21.4668 29.097 25026 1
32.1374 18.6888 26.5933 2719 1
33.3606 18.8133 28.9164 23637 2
34.68 21.1052 29.7897 2726 1
74.9459 69.7229 73.9509 27600 1
35.5633 20.2206 27.0878 1851 2
38.2008 21.0774 26.3637 22537 2
37.3128 21.475 29.2117 1899 2
37.8033 18.3123 27.7039 22536 2
40.0451 18.6767 25.9538 1904 1
40.7654 20.1258 27.9299 1854 2
43.2212 19.0743 28.2235 23128 2
42.9367 22.0586 26.861 40934 2
42.1434 22.3354 29.3865 3665 1
40.6012 21.8601 25.4202 2790 1
42.0943 19.9608 25.4269 43666 1
44.264 21.112 29.3781 21871 1
45.0662 19.7175 25.9567 1099 2
48.0768 20.3153 26.4937 40834 2
46.2441 19.4856 29.0944 22576 2
48.4575 21.6677 29.0257 1908 1
50.8416 18.8334 26.0579 38521 2
50.5126 21.5116 25.8853 40893 1
52.5224 19.4204 28.3877 22574 1
51.3117 21.8933 28.5072 1110 2
49.9209 19.4311 29.0197 22529 2
53.3415 20.883 26.0657 38365 2
55.4203 19.658 25.6679 21944 1
55.0988 20.1364 27.9869 12513 1
56.3969 22.2672 25.9479 39988 2
56.275 18.2678 27.7307 22565 1
57.5095 21.1029 28.3324 13500 1
60.7975 21.4352 26.1491 31298 2
59.9948 19.3786 28.1035 19184 2
59.9128 22.26 29.0536 31285 2
61.1791 18.7825 25.9058 31004 1
58.0463 19.7909 26.0789 38509 2
64.9948 21.3873 28.0984 21892 2
62.9791 20.0155 26.9998 31021 1
65.1358 19.5011 26.0195 30371 1
65.275 18.2049 28.3086 30999 2
17.5245 51.2826 74.535 13999 1
67.7242 19.8311 26.8463 31023 2
69.5365 21.3691 28.8433 19245 2
70.2543 18.2552 28.8858 38366 1
67.7169 22.3611 26.9641 31293 1
69.9351 22.3561 25.6857 31019 2
67.0571 20.2955 29.2998 20998 1
46.5617 18.506 70.7741 15485 2
26.5475 17.9953 73.3083 10011 1
74.7905 35.2146 34.8159 2976 1
71.6514 20.0803 27.1689 30996 2
73.752 21.475 28.5799 12413 2
73.2836 18.104 28.8039 21403 2
74.94 19.5226 26.4145 31289 2
18.6117 25.1619 26.5136 970 1
18.7983 22.7296 27.3784 1928 2
20.4454 25.4284 28.4838 1885 2
20.8433 26.571 26.2172 52493 1
20.0957 22.4711 29.4961 1887 1
17.7299 60.3399 40.4083 57406 1
22.8191 25.3375 27.1212 25062 1
24.8821 23.5662 27.7175 25024 2
25.2488 26.3637 25.9513 25061 2
26.4762 25.5727 28.3428 1945 1
24.2657 26.3109 28.5122 1888 1
29.6906 22.6909 26.1123 1895 1
27.0628 23.4067 29.0841 1884 1
27.9597 24.745 26.3967 1943 2
30.5683 25.7153 27.5465 40920 2
29.7405 23.1548 28.9123 1944 2
32.2779 23.368 26.5314 989 2
33.1098 26.1408 27.4744 1035 2
32.2999 23.968 29.0073 25060 1
34.7361 23.0466 27.9241 25027 2
34.7831 25.591 29.7575 25028 2
35.58 25.7244 26.7886 40922 1
37.3434 24.5196 28.0573 2729 2
37.5266 26.4749 29.617 1951 1
40.0002 25.6271 27.0218 2836 1
37.5093 26.0725 25.7408 2779 1
36.3644 23.1041 25.5379 40928 2
39.99 23.059 27.8914 3770 2
41.8425 24.6086 26.1508 1956 1
42.2106 24.6232 28.6151 2782 1
43.9278 24.4599 27.0654 41801 1
44.1131 23.5656 29.3825 22532 1
45.9367 22.1627 27.4177 43705 2
46.7786 25.1586 26.3819 40939 2
46.9524 24.3049 28.9365 1153 1
44.6893 26.086 28.9352 2837 2
49.0704 23.7057 27.3514 40989 2
52.1045 23.8848 26.4134 19180 2
50.7689 26.2609 27.7404 2020 2
54.2803 17.9433 63.3891 16706 1
54.2498 22.7857 28.5788 23176 2
53.419 25.8752 28.1584 23642 1
54.969 24.6564 26.3905 40025 2
55.1889 24.9424 29.3624 40030 1
74.9765 35.9092 39.5642 3940 2
56.9884 23.333 28.9429 23172 1
57.5232 25.861 27.935 18330 2
58.7759 23.4333 26.5664 38629 2
60.1005 25.2363 28.4136 20148 1
61.2037 24.7119 26.0607 199 2
62.5736 23.3299 28.1627 19285 2
64.5553 25.3091 28.9938 20106 2
65.0882 23.6938 26.9432 18327 1
62.9087 26.6772 26.8552 19229 2
65.7846 26.733 26.9619 18337 1
63.0838 22.9387 25.5264 30803 1
69.5888 24.3346 28.1435 1065 2
67.3447 25.8386 28.3549 19241 1
67.4194 24.5882 25.9162 31294 2
66.9361 23.3449 29.2764 31002 2
70.6056 25.0354 25.1476 44061 2
74.8392 22.7399 26.0054 39972 2
73.4674 25.5045 25.7133 44079 1
71.9768 23.0737 27.306 12457 1
71.8418 25.7229 27.4371 30290 1
74.0003 24.6769 27.989 43162 1
18.6085 27.3614 28.2197 63548 1
19.824 29.0416 26.4836 1933 2
17.9345 29.7607 29.2043 1936 2
21.982 30.4928 27.8878 1071 2
20.9787 31.2148 25.4847 72807 1
20.6913 28.4491 29.7541 63546 2
22.2983 27.7002 28.0584 63545 1
24.6658 29.1209 27.2963 1023 2
75.3502 19.5564 66.4685 29537 2
26.7807 28.3727 25.5153 986 1
26.8902 30.1135 28.4336 40916 1
28.0308 27.5239 27.7341 39954 2
28.9407 29.9287 26.6324 19240 1
29.3062 27.4394 25.3639 41796 1
30.4089 27.4477 29.4428 1949 1
30.8981 28.6332 27.4225 983 1
33.2668 58.3758 25.5066 41981 1
33.0021 28.5889 29.361 41845 2
33.3991 29.4399 26.5269 41885 2
33.8537 31.0599 28.8458 1033 1
31.8758 27.494 25.3519 43811 2
17.4406 56.6265 28.7552 50587 1
35.8136 28.1503 27.833 40926 2
37.8038 29.8658 27.7319 2010 1
38.638 27.4868 27.4924 1083 1
39.1716 29.5444 25.5216 1907 2
35.9832 30.3607 29.7391 4713 1
40.4267 26.3567 29.5367 1958 2
42.4404 27.0455 27.2355 41842 2
43.3938 29.909 27.6211 43703 2
40.4666 29.4395 28.1095 40975 2
41.9789 29.0372 25.5466 1897 1
45.269 27.6536 26.8356 40985 1
46.6283 29.9416 26.6455 41032 2
48.0714 27.5508 27.8448 40935 2
45.6816 29.0254 29.4233 41849 2
49.2446 30.2799 27.5399 1954 1
50.5852 28.4174 26.3986 42717 1
50.7895 28.8393 28.788 2027 1
51.8442 30.9947 26.7718 1163 2
25.7437 74.7234 33.0845 5406 2
52.8886 28.3132 27.5964 40996 1
55.0882 27.668 28.7015 20144 2
54.9895 30.2997 27.1428 248 2
55.7389 27.3868 25.628 19382 2
53.5322 29.2196 25.384 1105 1
58.3725 26.9919 25.5846 19227 1
60.1995 27.1369 26.975 246 1
57.9871 29.093 27.1066 19231 2
61.3379 29.4304 26.1822 2792 2
60.3059 30.7337 28.7007 200 2
59.2768 31.2579 26.3542 1109 1
62.0062 28.651 28.5295 19243 1
64.665 29.2274 26.5152 19242 2
63.771 30.7015 28.6527 20214 2
64.5497 27.9974 29.5498 20151 2
68.6457 27.2838 25.9524 30998 2
69.7956 27.1328 28.5661 19186 2
67.343 28.7997 28.391 12515 2
69.5809 29.6466 27.0841 43818 1
67.219 30.3565 25.8788 30833 2
69.3663 31.0007 29.4171 20158 2
71.4713 30.9082 25.3569 43793 2
74.5491 27.6849 27.1902 30993 2
71.5957 29.5557 28.447 19294 1
73.3101 30.5011 27.2056 43804 1
71.6352 27.9649 26.065 18339 2
72.4872 27.4675 28.9511 18336 1
72.4498 75.3034 61.0899 28048 2
18.3842 31.5324 26.8672 63536 2
18.3998 34.6669 27.6246 1017 2
21.5857 33.3178 26.7823 1060 2
20.1592 32.2393 29.2871 1934 2
20.7587 34.9713 28.8185 63543 1
17.8006 42.4225 26.2553 74583 2
24.5624 31.8328 28.5727 63681 2
24.3148 34.1167 26.8857 43702 1
23.0273 34.2146 28.9571 1069 1
23.9439 31.8106 25.5448 72814 2
26.4897 33.4641 27.5538 1070 1
28.4644 32.0878 27.9062 40965 1
29.0091 34.2494 26.2529 1031 2
26.6572 31.1288 26.044 40917 2
28.0424 34.7072 28.7541 1989 1
30.1887 33.9232 28.6417 2916 1
29.7359 31.9861 25.4923 979 1
31.2463 31.3373 27.8174 1940 2
34.7661 34.8114 27.7905 24974 2
33.6262 32.4369 26.9401 984 1
31.8827 34.252 26.6868 1029 2
32.7524 33.3768 29.6276 1950 2
17.6 36.4335 43.7211 5696 1
36.1057 31.805 27.2113 41893 2
39.0982 32.3031 26.5679 1199 2
37.2338 34.7968 26.1202 41937 2
37.0909 33.6862 28.6077 1080 1
39.633 34.6025 28.3003 20283 2
39.8818 35.0018 25.733 19202 1
41.5852 31.4469 26.302 42701 1
41.9673 33.6623 26.9085 2002 1
43.8463 32.2113 25.4622 41848 2
41.3684 32.1008 29.0376 2004 2
42.1424 35.2142 28.7612 2944 1
44.3808 34.7404 26.9754 2990 2
47.5255 31.5693 28.6537 2942 1
47.205 34.2617 28.1571 2067 2
44.8337 32.3891 28.2127 43700 2
46.8505 32.8082 25.7331 197 2
49.9171 33.1192 27.8787 237 2
52.2362 35.0841 28.7512 2022 2
51.7783 33.7868 26.2358 291 1
52.496 32.5478 28.9932 2902 1
49.2445 34.8458 25.5364 1211 2
20.849 74.9742 72.8228 29563 1
49.2419 35.3735 29.4714 236 1
56.7664 34.6447 27.2556 19334 1
54.2657 33.307 27.149 20251 2
55.5136 34.5066 29.119 1208 1
54.7205 32.1122 29.5531 249 1
57.2691 31.9192 28.2441 2077 2
59.1239 33.7921 26.4917 241 2
60.4486 34.1179 28.6483 19233 1
58.1998 34.6052 29.1902 19235 1
61.9483 32.551 26.7959 1112 2
62.4557 34.9609 28.1888 43165 1
64.8496 32.1323 26.099 18380 1
64.2854 33.49 28.1985 19341 1
64.3517 35.0277 26.1729 19232 2
66.218 35.1215 28.1527 19339 1
66.5657 31.7881 28.4276 19289 2
67.0132 33.3031 26.2568 19288 1
69.0322 31.953 26.9698 20162 1
68.5161 33.9499 28.3582 19293 1
67.7088 35.5489 26.4205 20215 1
73.8247 32.3428 25.9181 19297 1
71.4911 32.5889 27.6482 19246 2
73.7847 34.8411 26.8828 43988 2
74.5226 32.6209 28.6927 19301 2
71.4069 33.7874 25.4872 18438 1
20.1596 36.9376 27.1077 63542 1
21.9636 38.599 28.7916 1979 2
18.5843 37.7149 25.1886 63669 1
19.684 39.8259 27.379 63537 2
61.4638 18.2083 32.5365 22527 2
21.5685 38.6058 25.3611 1987 2
22.7821 36.3329 27.109 1988 2
24.6288 38.8177 27.243 2036 2
25.6206 35.9966 28.6393 1075 2
24.6861 36.6388 25.5467 2034 1
29.9457 36.5951 28.0127 1074 2
27.3969 36.7323 26.1894 41015 2
29.6014 39.5282 26.9366 1028 2
27.5407 38.4761 28.2908 1122 2
49.6765 18.2671 59.9387 16319 1
35.1221 38.1732 27.9104 2829 2
31.9914 38.5605 27.7344 1079 1
32.8137 36.7068 26.587 41936 1
32.8295 36.4584 29.2935 1997 2
70.9454 74.6427 35.6552 22693 1
17.8489 45.4112 67.9757 13042 2
38.2475 37.623 26.447 41068 2
38.0471 39.2407 29.2403 2061 2
37.0439 36.3356 29.0205 1995 2
40.6683 36.7814 27.1483 40988 1
42.8052 39.1209 25.8302 1204 2
42.7735 37.5478 28.4088 2066 1
40.6201 39.5097 27.5825 41984 2
40.2049 37.1198 29.7761 41994 2
46.3665 35.4888 25.3796 1197 1
44.7767 37.2997 26.4186 1159 1
45.2578 39.0712 27.9154 41031 1
47.6245 36.9689 27.2702 330 2
46.7308 38.9899 25.6448 286 2
45.2172 36.4158 29.1079 2995 2
50.2559 36.224 27.5846 41035 1
52.2511 36.5829 26.0586 1155 2
52.1076 38.2547 28.4693 1162 2
49.7861 38.1388 25.664 40108 2
49.1724 37.7788 29.1383 1213 1
50.953 40.2502 27.0757 290 1
53.9422 39.4338 26.6869 18473 2
54.6937 36.4258 27.5689 20297 2
54.9159 38.6182 28.9461 388 1
57.0802 36.9064 28.4773 19276 1
57.052 39.4702 27.7708 18430 2
56.4103 39.3853 25.1842 41085 1
57.4684 36.8518 25.9694 288 2
60.0763 39.0188 26.2144 18381 2
60.0049 36.4077 27.4767 2121 2
59.4747 38.7354 28.7986 18376 1
62.3881 37.1751 26.6982 1119 1
62.1193 38.9203 28.4902 19286 2
63.9821 36.8708 28.4498 20213 1
65.2297 39.2918 28.9117 20260 1
63.9564 39.0406 26.4861 44031 1
66.0936 37.0561 29.4726 20208 1
66.077 37.6121 26.8781 19281 2
29.8414 18.2378 68.3049 101 2
68.6734 37.7729 26.9175 19290 1
67.9178 39.2946 28.7301 163 1
68.7811 36.6234 29.5018 19291 2
70.5129 35.6771 26.802 19349 2
70.6521 38.1383 25.6731 18383 1
70.8861 38.6755 28.4174 18437 2
72.3524 36.3407 28.3944 25899 1
74.0068 38.5633 28.8555 19352 2
73.0059 37.5614 26.4983 18386 1
74.7548 39.2962 26.5245 18489 1
71.7408 71.1846 70.9448 14222 1
19.2077 42.3625 28.3476 63648 1
20.6845 42.0046 26.4012 63678 1
21.2938 41.5453 28.7623 63529 1
22.6412 40.7006 27.0128 2045 1
23.0286 43.1229 26.3551 21093 1
23.616 40.7253 29.2971 2039 1
25.1007 41.5965 26.029 41066 2
24.1719 43.2459 28.7084 63091 2
26.3357 43.9718 27.633 2969 1
26.276 40.9605 28.7102 2037 2
27.9446 42.2152 26.7376 43701 2
29.1996 41.6371 29.3981 25055 2
30.5969 41.9228 25.5807 41883 2
30.4701 43.7685 27.9584 2090 2
34.1324 40.8207 27.2956 1998 2
31.6418 41.0378 27.8461 41941 1
33.3716 43.1704 27.232 2051 2
37.4231 40.3446 26.5543 41072 2
38.1749 41.9698 29.2056 1202 1
36.5032 43.514 27.5804 41939 2
35.8416 40.9451 29.1828 2053 2
39.0749 42.4951 26.7545 3133 2
35.6909 42.0816 25.5057 2056 1
41.4566 41.7682 25.9568 1200 1
41.0633 42.0244 28.9256 1198 2
43.2409 40.3772 28.0985 25047 1
43.8355 43.1309 27.136 1251 2
48.2562 40.0063 27.7387 2119 2
45.0789 40.8204 26.3893 25049 1
46.8723 42.6127 26.5202 1254 2
45.6802 41.4029 28.9625 25018 2
49.1762 42.39 27.7704 2113 1
51.6389 42.736 26.8569 289 2
50.5516 40.7327 29.4712 2074 2
49.4003 41.2528 25.1247 41038 2
53.8638 43.8735 26.155 1307 1
55.4807 41.9518 26.9802 18427 2
53.8159 43.3915 28.5761 39218 1
53.2066 41.0786 28.5853 20299 1
56.7739 44.4635 25.9173 1350 2
69.0694 74.9386 69.7588 26951 2
57.655 43.225 28.8858 19337 2
58.1815 41.7839 25.9502 19282 2
60.1694 41.2985 28.1517 20206 2
59.7658 43.5977 27.21 1255 1
61.774 43.9264 29.5004 20298 2
61.938 42.9086 26.8342 18479 1
62.2883 40.6336 26.4739 18379 1
64.0988 41.5233 28.3397 19338 2
63.8079 44.192 27.8156 18435 1
65.8054 43.4795 26.7166 19384 1
66.5977 40.6734 26.6437 18433 2
69.4811 40.7688 26.8356 18439 2
67.9099 43.0869 27.7312 19396 1
69.7793 41.6866 29.3939 19340 1
70.1945 43.4223 27.4173 19389 1
66.9973 41.4924 29.737 20305 2
72.5084 40.1147 26.6944 18443 1
71.6664 41.5286 28.3328 20353 1
74.413 41.5872 28.3757 20361 2
72.0776 42.4888 25.6314 19401 2
72.7845 43.9464 28.017 2141 1
75.0844 61.1702 62.7281 28393 2
21.3643 44.2825 28.0229 63528 2
18.7311 45.0905 27.0396 63282 2
18.6834 47.7515 28.2936 63280 1
21.298 46.8962 26.6534 53468 2
20.6063 46.6512 29.1958 48662 1
24.0786 45.5555 26.1987 63650 2
23.8016 47.8312 27.628 2088 1
25.6493 46.1234 29.232 2044 2
28.395 44.7762 29.3821 2971 2
27.1897 46.3826 26.6626 41064 2
29.7822 46.2101 27.0996 2049 1
28.7443 47.5373 28.7285 1131 1
28.9544 48.3137 26.4411 41062 1
27.7985 74.9106 61.3162 8995 2
30.9822 46.3664 29.3438 2046 1
32.6711 46.1844 27.0375 2157 2
33.2338 47.002 29.6047 2922 1
34.607 48.3091 27.8188 2095 2
34.8345 45.4178 28.7271 3952 1
32.6498 44.6785 29.4877 2979 1
58.7658 75.0656 67.1795 28926 1
39.1129 44.2461 28.8456 2156 1
38.7377 45.5176 26.5379 41124 2
35.9757 46.2844 26.8664 41990 1
37.5101 46.4898 28.8414 2159 2
37.2858 48.4082 26.7334 2155 1
41.2334 44.2941 27.3863 1249 1
40.4293 46.4627 28.7168 1292 1
43.2748 45.6995 27.74 2162 1
41.4133 46.8269 26.2003 1293 2
42.9393 47.8065 29.152 25009 2
47.4526 44.3573 28.8196 1253 2
44.6095 47.3153 25.8018 2169 2
45.7493 45.0972 26.8105 381 1
45.49 46.8297 28.5351 21219 1
47.4343 46.6387 27.1321 385 1
47.1641 48.5169 28.912 2214 1
17.3968 33.9176 61.8838 62204 1
49.2622 44.6673 26.3027 340 2
51.4848 48.0475 27.1773 1345 1
49.5379 46.8127 28.5244 2208 2
52.5341 45.6718 27.6908 25040 2
49.9598 47.2406 25.3479 1305 2
30.1144 75.0229 42.1407 7254 2
55.3691 45.5469 28.2201 1306 2
54.5674 46.141 25.6767 1264 1
54.0315 48.4245 27.842 19428 2
56.5507 47.8928 26.2587 19426 2
57.4017 48.3775 28.8813 21280 2
58.7125 45.7929 27.8973 1303 2
59.2998 47.3313 25.2507 20346 2
61.7636 46.0452 26.981 20338 2
61.4045 46.7859 29.3911 259 1
63.6533 46.0025 29.3388 20304 1
64.7438 46.399 26.8914 19386 2
62.7834 48.1917 25.8167 1274 1
66.0333 47.3819 29.2168 25875 1
63.4693 48.8329 28.497 18534 2
70.3816 44.8072 25.1972 19395 1
66.2685 44.6899 29.0323 21284 2
67.8569 45.7242 26.8976 21192 2
68.6968 47.6898 29.0241 19439 2
69.4654 48.5544 26.0117 18476 2
66.7656 48.6415 27.3554 25042 1
74.6779 62.2338 68.3186 27673 2
71.0067 45.9225 27.5575 19436 2
72.9191 45.4163 25.9577 18542 1
73.2555 47.9181 26.8363 19445 2
74.4458 45.9327 28.048 20313 2
19.1561 49.2962 26.4343 63274 2
18.0823 52.1713 26.8686 54461 1
21.583 49.4574 28.6535 48858 2
20.4299 52.6678 28.4244 63060 2
18.6099 50.538 29.0841 63275 2
20.1981 51.9278 25.3128 63632 2
26.3077 49.1412 27.7262 63281 2
23.9118 50.2247 28.1096 63527 1
25.1876 51.4116 25.9061 2085 2
22.4481 51.6457 26.8898 63486 1
26.001 52.2031 28.4625 63483 2
23.4049 52.587 29.3923 63234 2
22.1779 49.419 25.7367 48669 2
28.5175 50.735 27.7328 24951 2
29.2293 52.3083 29.7996 2973 2
50.0164 18.289 56.9765 17596 2
30.4609 50.2673 25.4709 41110 2
31.1351 48.6115 27.9338 41946 2
32.7834 48.5646 25.733 2092 1
33.2618 50.291 27.0633 41115 1
30.9643 51.0882 28.0182 40237 1
34.994 51.1552 28.3289 41120 1
32.9718 49.7326 29.9629 3028 2
39.4916 48.7412 27.9391 1294 2
37.4851 51.3316 27.228 378 2
36.7683 49.4781 28.875 63642 1
38.9923 50.7239 29.4804 1336 1
40.3574 51.8556 27.484 1339 2
42.0106 49.5544 26.5417 2200 2
43.556 52.2417 26.3143 383 2
42.2192 50.67 29.269 2242 2
47.2722 48.8902 25.6205 41079 2
44.8518 49.7062 27.8366 1295 2
46.3069 51.2587 26.466 394 1
47.4964 51.4204 28.7787 25836 2
45.1007 52.9792 28.8312 1389 2
49.1009 49.607 27.443 2213 2
48.6229 52.49 25.8356 3092 2
51.4369 50.458 25.9458 25001 2
50.7427 52.4196 28.2674 4065 2
51.5793 49.8468 28.5533 1301 1
51.5287 52.8855 25.482 436 1
55.9922 50.995 26.8833 1268 2
53.5634 51.494 28.09 25885 2
17.5206 40.9071 34.4993 63086 2
60.5636 48.8229 27.7124 2172 2
58.2425 51.0744 28.6749 1310 1
58.3374 49.5778 26.6658 19470 1
59.8395 51.6482 27.0176 3150 1
57.7891 53.0357 27.2869 1267 1
62.4772 51.3341 26.7489 19483 2
65.0955 50.8605 27.6991 20397 1
65.119 52.5192 25.5937 18526 1
64.9135 49.4591 25.3711 20344 2
67.4356 51.3868 26.5903 19482 2
69.0865 50.096 28.1862 1224 1
66.8151 50.2581 29.5478 20351 2
68.4545 52.9801 29.1562 20391 2
70.5919 51.9117 26.5972 19488 2
71.2559 48.8601 28.3106 2268 2
73.6134 50.9454 27.3521 19532 2
71.3785 51.7029 29.3372 20394 2
74.8458 48.9327 29.2718 25005 2
19.0546 55.0513 26.7253 63500 2
21.6761 54.6318 26.0412 63481 2
19.6922 55.575 29.8327 63223 2
72.0034 72.8141 72.9784 15179 2
23.8824 53.705 27.0677 63235 1
23.8989 56.5058 25.9438 63634 2
22.1994 54.8906 28.8159 63046 1
25.1478 55.301 28.7868 63188 2
26.2159 54.4796 25.4868 2084 2
23.5574 57.2531 28.7613 63485 1
30.1405 52.8679 26.7466 2040 1
27.9517 54.2986 27.8278 2089 2
29.3466 56.797 27.7057 3022 1
26.8305 57.2456 26.8441 63479 2
29.3309 55.0832 25.5109 40191 2
32.8992 52.7788 27.0514 2048 2
30.8922 54.7506 28.5413 40239 2
32.1209 55.6401 25.7887 42703 2
33.7773 55.3547 28.2036 41977 1
35.7434 53.5928 27.325 41170 2
37.0265 55.8479 26.7591 477 1
38.5638 56.7576 28.7707 3191 2
36.1844 55.7361 29.4255 376 2
38.6796 54.1393 27.2482 19545 1
39.5371 56.1067 25.5928 1343 2
37.7025 53.1247 29.7389 2199 2
42.5312 53.7212 28.7975 1388 2
41.0407 55.5741 27.6429 481 1
39.8367 54.5163 29.2335 2201 1
43.1429 56.6565 29.0537 2289 2
42.5269 56.9747 25.6104 435 2
44.0391 54.9971 26.8177 1386 1
46.0804 53.6164 26.4448 2240 1
47.7236 55.558 26.0472 1348 2
45.6932 55.4209 28.2806 1347 1
47.4464 57.1938 28.2557 1393 1
48.2268 54.3232 29.033 1297 2
50.1971 54.2421 26.6163 19565 1
50.1088 56.6685 27.6715 20463 2
52.304 55.5306 25.9734 1399 1
52.6685 55.3133 28.9072 1397 2
55.5197 54.158 28.3726 19469 1
54.6624 56.3928 26.2639 20435 2
53.4035 53.7405 26.9368 1352 1
55.131 56.5977 28.7321 19657 1
55.4358 53.5708 25.8286 19473 1
57.0237 55.5467 26.2874 19517 1
30.8548 29.888 25.3768 1020 1
59.8316 53.2858 28.8493 19379 1
60.0811 54.5436 26.3062 20390 2
58.2336 55.5073 28.672 25887 2
61.3622 56.832 27.5563 25865 1
59.1947 57.045 26.495 18630 1
62.5324 54.1433 27.8849 19476 2
65.6073 53.7081 27.8744 19486 2
64.0404 56.8473 27.0997 19570 2
55.3125 18.1994 72.1465 3648 2
66.1835 55.1737 25.3007 19581 2
67.4796 55.3793 27.5868 19585 1
69.0761 56.6896 25.6176 19586 2
68.721 53.9442 26.372 19523 1
69.029 57.2239 28.7903 19626 2
70.8651 54.6328 27.9637 19524 2
73.3215 53.7166 29.0536 20447 1
72.8755 53.395 26.8441 20402 1
73.6216 56.2134 26.4471 20444 2
74.6875 55.6522 29.1235 20446 1
71.1868 57.204 27.4119 20488 1
21.1075 57.2379 27.6074 48680 2
18.3435 57.8192 26.273 63187 2
21.2692 59.6879 26.007 63438 1
19.302 59.9947 27.6019 63040 1
19.1634 58.3111 29.1267 63185 1
21.9738 59.762 28.6263 63183 2
24.3087 59.4847 26.7778 63433 2
25.9 58.5219 29.2739 53648 2
26.3191 61.1054 28.3151 63042 1
22.9354 61.5363 25.3575 63598 1
28.8009 59.4287 28.3083 63272 2
27.0937 59.9085 26.2469 63410 1
29.7175 60.8349 26.0662 53557 1
29.9335 58.1725 25.7398 25023 2
32.0739 57.7417 27.8046 2982 2
31.0516 60.3733 28.9534 3012 1
33.5929 59.5085 28.9037 24941 1
32.2556 60.6377 26.79 1382 2
35.3396 57.9344 27.6215 428 2
17.5255 35.3324 66.2755 12129 2
35.5106 60.7219 27.0286 24999 2
37.9915 58.5718 25.8959 1338 2
38.095 59.4833 28.4827 1385 2
39.0814 61.6805 26.9085 24937 2
22.2928 18.0849 60.5735 10014 1
40.7852 58.2366 27.5341 429 2
41.5544 60.9496 27.2648 19607 1
43.1878 59.1595 28.2332 1387 1
43.3078 59.6439 25.8459 479 2
40.7303 60.8331 29.74 1436 2
43.6287 61.7575 29.3737 1441 2
45.2011 57.4332 26.7971 1390 2
45.7086 60.3978 27.4411 1445 2
48.0185 59.3174 29.0902 2294 1
48.3927 61.1757 27.2403 1444 1
48.1667 58.7272 26.0264 1447 2
45.6228 58.2931 29.8316 20511 2
52.3633 61.4992 25.3943 2342 1
51.8893 57.8186 25.9472 491 1
50.8399 59.8471 27.2178 19569 2
52.1728 60.857 29.4422 25035 1
49.3357 61.7385 29.6709 2387 2
53.0712 58.1912 28.3326 1398 2
56.8355 58.3981 27.4001 448 2
53.5741 61.0185 27.5548 24996 1
54.1545 59.138 25.5623 20473 2
55.8018 61.5005 27.7105 25862 1
58.0638 60.8338 26.7015 19618 2
59.5874 58.6821 28.5 444 2
60.7914 60.9078 27.5277 20476 1
59.8235 59.3422 25.172 19575 2
62.2594 59.0743 26.8373 19572 1
64.5838 59.3184 27.7116 19520 1
63.3818 61.4986 26.3947 19580 2
62.6011 61.0675 29.346 19623 2
66.1908 61.0153 26.3654 546 2
66.8605 58.1023 26.8372 1420 2
69.3126 59.8784 26.9291 20487 2
67.6466 59.7326 28.9166 20483 1
69.1511 62.0198 29.7304 20492 2
74.3597 61.2198 28.4775 20497 2
72.2034 59.393 26.818 20485 2
73.6186 58.1752 28.6658 20489 2
71.6105 61.7292 28.119 21396 1
71.2687 61.3652 25.4758 19632 1
71.1217 59.4384 29.6507 20537 2
21.1034 62.337 27.1185 63425 2
20.16 65.7634 26.9661 54635 2
19.0991 63.4565 26.0077 53783 1
19.7718 64.0465 29.5822 63146 2
17.693 64.8936 27.4428 55588 1
32.9147 75.168 59.7146 24434 2
24.3831 62.3784 27.4248 54632 2
25.4519 65.1796 27.655 63028 2
22.4729 64.5276 28.528 48872 1
22.1169 62.1938 29.4435 63233 1
22.7855 64.4204 25.9634 63600 2
28.5877 62.1386 29.0122 48774 1
27.4489 62.8371 26.3682 63227 2
27.9068 65.6405 25.8096 5799 2
28.7143 64.8959 28.3943 63176 2
26.6809 63.3209 29.0124 63043 1
30.8521 65.1891 25.4182 5309 2
30.5567 63.1037 27.3259 24954 2
33.7648 62.1914 29.1124 3025 2
33.6603 63.476 26.3206 19499 2
32.5759 64.7203 28.3989 2284 1
36.9366 61.9799 28.8346 20458 1
36.6113 63.1357 26.0859 2288 2
38.8398 65.2748 26.9301 2328 2
35.955 64.5597 28.5474 3184 2
39.0023 63.3889 29.3222 1384 2
35.3894 65.982 25.5942 24997 2
41.4363 63.5301 28.0325 1439 2
40.7677 65.8777 29.3066 2331 1
43.8607 62.1165 26.8191 1391 1
17.6745 46.5952 41.5418 62757 1
41.6311 62.1726 25.5047 25906 1
42.0601 66.2204 27.0795 572 1
45.1228 66.0982 27.1459 1442 2
46.561 63.0898 28.0746 1443 2
43.9797 64.2027 28.0058 1438 1
45.1528 63.6199 25.6822 19616 1
47.7882 66.0942 28.5457 19614 2
49.9635 62.3549 25.618 19660 2
49.1599 63.6063 27.7252 25036 1
51.7792 63.0479 27.9192 19617 2
51.1874 65.7511 29.2149 2388 2
54.6345 62.1096 25.7908 18770 1
53.4609 66.2061 27.1946 2381 2
54.7061 63.9248 27.255 19665 1
56.5961 63.3867 28.907 20518 1
53.5684 64.494 29.3727 1490 1
55.8621 65.9317 28.533 2430 2
24.5 74.7728 49.8769 7208 2
57.3669 63.6961 26.4196 20521 2
60.3664 65.3806 26.9799 19670 2
58.3931 65.2578 28.7094 20522 1
59.3891 63.006 28.8527 20525 2
60.4806 62.7073 25.4728 18729 2
61.9216 63.3697 27.9671 25860 1
64.7888 63.2951 27.4049 19625 1
62.708 64.4836 25.8506 1455 1
64.8655 65.4229 25.854 2354 1
63.3685 65.4878 27.7609 19624 1
66.0963 65.4203 28.4726 21433 2
66.7354 63.9426 26.2124 602 1
67.4708 62.5787 27.9517 20533 1
69.9966 63.2854 26.6195 20527 2
69.2319 66.1547 29.6298 23502 2
73.4408 63.0052 26.612 19679 2
71.6306 65.6017 27.4588 21693 2
71.1754 63.7743 29.2057 19639 1
73.7339 64.074 29.6489 22549 2
74.6713 65.2743 27.3331 22590 1
18.6262 68.2079 27.1916 54678 1
21.24 68.5592 26.6162 63142 1
21.0496 67.0931 29.4524 63177 2
18.4516 66.2421 29.0858 50692 1
20.1402 69.8987 28.6949 54810 2
73.6472 74.2796 71.4227 3564 1
19.4848 70.5416 25.8001 54856 2
22.8846 66.5519 27.3969 63141 1
23.1848 69.1034 28.5775 54677 2
25.1484 67.8022 27.2573 63140 1
24.2093 69.7419 25.5508 48693 2
23.9709 66.388 29.4574 55685 1
25.7855 70.0206 28.0258 63124 1
27.7234 67.8237 28.2814 63144 2
26.932 68.9319 25.947 55682 1
29.3938 67.7907 25.9381 1383 1
29.7168 70.1227 27.4495 63139 2
30.9288 66.971 28.1031 63037 2
33.0596 66.1285 26.3402 24853 1
31.9143 68.7707 25.8507 63014 2
34.3149 68.2273 26.8456 48819 1
32.7302 69.5821 28.7118 4408 2
33.9233 66.8947 29.0417 5806 2
38.4341 66.2881 29.3101 2332 1
35.7742 69.8086 28.4762 3598 1
37.0823 67.6388 27.5537 2373 2
38.4975 70.3381 28.3047 2419 1
38.6577 70.0683 25.6715 4204 2
28.5376 74.8801 51.3299 25643 1
40.1791 68.2737 27.8617 1482 2
42.7842 69.0061 27.3388 579 1
43.2132 67.2886 29.316 2420 2
43.748 68.069 25.2254 527 2
34.7192 18.5348 54.4097 18013 2
33.5828 75.0473 46.1402 6353 1
74.704 24.8169 64.9453 29075 1
47.4481 66.8735 26.1165 525 1
45.6452 68.7153 27.7223 578 2
47.6698 69.935 29.3352 3294 2
44.7419 70.587 26.3297 530 1
48.3582 69.0578 26.6493 1528 1
50.3753 66.0602 26.5368 1446 2
49.3817 67.9988 28.4219 2338 1
50.9974 69.2899 26.2308 1488 2
51.942 68.0056 28.1751 2427 1
65.3915 18.0199 41.9566 7425 1
53.8616 70.0634 28.2786 1533 2
55.4991 68.3053 26.9962 2425 1
39.6053 75.021 33.1908 4519 2
56.485 68.7967 29.283 2439 2
53.9566 67.5611 29.5317 2384 1
60.6101 69.3134 26.8188 19718 2
59.1379 67.925 28.8686 20569 1
58.7029 70.3765 29.1169 25855 1
58.1025 67.2081 26.6216 25882 2
61.4576 70.3293 29.696 20570 2
61.4325 67.7387 28.6822 20571 1
57.5938 70.1566 26.3897 19667 2
63.3825 69.5853 25.3519 21779 1
62.5619 67.2356 25.996 18779 2
65.6951 67.6208 27.0193 20529 2
63.3115 69.1763 28.0155 21735 1
65.3384 69.0187 29.2695 19669 1
68.6453 66.1406 26.5007 18736 2
70.4079 68.0787 27.5777 25816 1
70.053 69.9994 26.4234 18741 1
67.8589 68.775 28.0153 22589 2
70.9955 67.1609 25.4902 2396 1
73.0734 68.5395 26.9668 2592 2
71.7651 68.0033 29.3629 25853 1
73.9575 69.5351 29.4249 21748 1
74.3525 66.973 29.203 22592 2
71.4515 70.8068 28.6268 22642 2
18.7403 72.8652 28.3688 54859 2
18.9608 74.0607 25.8148 63363 2
21.7039 73.7533 27.0905 63116 2
21.6492 72.457 29.7621 62901 2
21.9558 70.8686 26.7014 63128 1
24.2838 72.6797 25.7066 63118 2
23.8299 71.6877 28.1388 63010 1
25.8525 72.8357 28.1162 48908 1
23.916 73.9603 29.5999 4505 2
27.0501 74.2972 26.2454 3538 1
28.2019 73.7294 28.5353 4507 1
27.3726 71.6939 26.6331 63125 2
30.2959 73.4768 26.9458 3587 2
30.773 72.3902 29.3099 3543 2
30.7262 71.3548 25.2933 50703 1
34.7748 71.5672 27.0081 21775 1
32.2955 71.5801 27.0973 4458 1
33.2647 73.919 28.2154 3599 2
32.842 73.3316 25.6316 4512 1
38.5952 73.2481 25.7409 22511 2
37.0121 71.7628 27.056 3597 1
39.0053 73.2568 28.538 4520 2
35.6909 74.2976 26.4148 3602 2
36.0762 73.4377 29.3521 23876 2
50.2583 18.225 66.7674 16332 2
42.781 73.3203 25.792 577 2
40.9827 71.3944 27.3642 2374 2
42.3389 73.5803 28.7576 1532 2
40.6231 74.5499 26.9288 19699 1
44.7582 74.6218 28.5367 21842 1
44.2947 71.4534 28.904 1483 2
47.0491 70.9985 26.9943 3300 1
45.6178 73.2643 26.5928 1487 2
47.0914 73.012 29.0257 2424 2
48.5663 74.5504 27.0598 1531 2
49.6426 71.7927 27.3385 2426 2
51.3854 73.9046 27.4285 21736 1
52.0347 72.0088 28.7838 22630 1
52.3823 71.6443 26.5041 2431 1
53.1407 74.7295 25.5509 22631 2
53.7535 73.1934 27.6389 21526 1
54.774 71.1692 25.9913 25821 2
55.4096 74.5159 28.8887 21729 1
56.509 71.9225 28.1313 21476 2
55.5232 73.9956 26.3287 12850 1
57.5433 72.7603 25.662 2432 1
58.0841 74.5843 27.9862 20618 2
59.7275 72.1288 27.3227 20619 2
60.0303 74.1 25.5759 21788 2
62.4815 71.2232 27.2879 25856 1
65.3934 70.9429 27.4814 20824 2
63.087 73.7602 26.8836 22588 2
63.9847 71.9583 29.377 25778 1
68.7359 71.7769 28.5109 21737 2
66.4681 73.3941 26.3477 21781 2
66.4272 73.4615 29.4204 22638 2
70.0212 72.6577 25.9454 22688 2
67.7625 70.8153 26.4903 21740 1
68.9283 74.8088 27.7019 21787 2
72.1143 70.9236 26.1092 21785 1
71.4656 73.4787 28.3951 25817 1
73.5516 72.9347 26.445 20834 2
73.8581 72.3243 29.3985 21791 2
21.1808 19.1997 32.2179 2716 2
19.7256 21.9816 32.0179 20051 2
18.3605 19.1873 31.7598 59349 2
22.2506 21.1769 29.8281 25064 1
23.6557 19.2646 30.4006 20009 2
25.2763 22.0463 30.498 24990 2
24.1187 20.5892 33.2502 3701 2
26.3777 18.7241 31.2287 784 2
22.4864 22.2272 32.2383 1841 2
26.9743 21.2725 32.6349 2772 1
28.021 21.2531 30.15 2717 2
29.2503 19.2915 32.1775 1847 2
29.4016 21.9643 32.6267 2776 1
26.7221 18.8066 33.9988 3652 2
30.9155 21.5436 31.0753 936 1
30.9031 19.0358 30.2852 1891 2
33.1721 20.3171 31.4463 987 1
31.7214 20.6131 33.5162 3653 2
34.2743 22.247 34.3333 1948 2
17.8026 58.038 45.2686 62729 2
35.9141 19.1699 29.7421 20120 1
38.8638 19.0414 30.3421 21910 2
36.0784 21.0175 32.0104 1900 2
38.416 19.4216 33.3719 3663 2
39.3182 21.704 32.3385 3662 2
17.8311 68.5451 29.6113 55780 1
39.8416 21.5185 29.8416 3657 1
41.9336 20.1419 30.8488 22582 2
41.4302 20.2952 33.376 25771 1
43.8642 19.0316 33.3569 3667 2
43.5022 22.4287 31.7867 2784 2
45.2789 20.2194 31.4241 12875 1
45.9661 22.049 33.5052 2791 2
46.7586 19.0197 33.9846 21060 2
48.2836 19.9046 31.4077 23264 2
46.5129 22.2631 30.6337 4627 2
48.7713 21.9646 33.5078 2736 2
50.4163 21.4425 31.1509 21895 1
51.6282 19.1017 31.5276 3670 2
49.8979 19.0276 33.4058 22528 1
51.4389 21.3191 33.8912 22570 2
53.2629 21.3131 31.0785 2785 2
53.4964 20.0092 33.4635 21898 1
55.781 21.0181 29.9305 23127 1
55.8788 20.0702 32.4283 22564 2
54.3896 18.5961 30.0381 22533 2
54.4667 22.227 33.234 2851 1
57.6791 18.8766 29.9725 11602 2
58.0724 21.4439 30.9121 23632 1
58.4218 19.3665 33.0565 21893 2
60.0839 19.7759 30.7751 20993 1
60.5671 21.8562 32.2952 20141 2
35.8139 18.3248 46.1982 5513 2
62.3319 20.4885 29.6402 38322 2
63.0746 17.97 30.5719 12512 1
64.7987 19.8616 30.4376 12897 1
63.5538 20.4507 32.7712 25850 2
65.4505 18.8332 33.4834 31025 1
66.5126 21.2135 31.7713 11550 2
68.9401 19.2096 30.9761 30802 2
68.0252 19.5108 33.7653 30814 2
70.5648 20.5749 32.505 1659 1
67.563 22.2437 34.0509 12415 1
71.9412 19.7018 30.3729 22613 2
74.3509 21.4215 31.4888 30808 2
72.8628 19.8056 33.0619 12506 1
72.0001 22.3744 32.9976 11516 1
19.3908 24.3388 30.5713 1930 1
20.9524 25.8919 31.1066 2818 1
19.7738 24.9791 33.2608 2809 2
22.5449 23.8443 29.8919 1886 2
25.1503 24.8715 30.6729 976 2
25.3389 23.5029 33.2125 2770 2
22.7496 25.2411 32.8815 2820 2
28.435 25.8084 30.233 1889 2
26.9217 25.7833 32.3619 21001 1
30.0515 23.824 31.4587 2771 1