ITEM: TIMESTEP    
40000     
ITEM: NUMBER OF ATOMS  
77888     
ITEM: BOX BOUNDS pp pp pp
17.607 132.393    
18.0782 131.922    
19.9917 130.008    
ITEM: ATOMS x y z id type
20.6439 18.4325 22.667 1839 2
19.0645 20.8189 21.6983 72779 2
21.5038 21.4548 23.695 977 2
18.8001 21.0958 24.4882 20053 1
20.5151 18.4637 20.029 20011 1
22.1056 20.597 20.7017 72830 2
23.1696 19.1536 23.4668 23170 1
25.58 19.5132 23.3691 22628 1
24.0824 21.1626 22.1769 72824 1
24.4203 21.3108 24.5465 1848 1
74.9946 72.6108 74.2943 25193 2
26.8865 21.7731 22.7507 1846 2
30.0266 20.7147 23.408 20062 2
29.7775 21.5316 20.5704 2719 1
28.1974 19.1708 21.3316 22548 2
31.3236 74.8495 33.3704 5415 2
32.2466 20.2265 21.3016 24988 2
32.8459 21.9559 23.6183 43709 1
35.0325 20.4768 22.2639 1851 2
32.9715 19.2252 24.3079 23637 2
37.437 21.0596 20.3495 22537 2
37.2656 22.0294 23.4809 1899 2
39.3566 18.81 20.6387 1904 1
25.2544 19.7973 20.2503 1021 2
39.828 20.5599 22.6578 1854 2
42.1287 22.0864 21.0842 40934 2
42.5564 19.3918 23.0371 23128 2
41.931 22.1309 23.8309 3665 1
75.0024 67.4942 21.3167 20832 2
44.3642 20.1837 20.6726 1099 2
47.4265 20.7499 21.3673 40834 2
45.6945 19.5883 23.7283 22576 2
47.7143 21.9532 23.9006 1908 1
49.8933 21.91 20.6696 40893 1
49.8337 19.9713 23.0702 22529 2
52.535 20.9406 20.6339 38365 2
52.7207 19.3297 23.0971 22574 1
49.9708 18.7711 20.0144 38521 2
55.072 20.884 22.2531 23176 2
57.0901 18.6455 22.9404 13500 1
55.8801 18.2332 20.6582 21944 1
60.9256 21.1633 21.1929 31298 2
60.3502 18.5213 22.9941 19184 2
58.8459 20.9853 23.9327 31285 2
58.0595 19.9248 20.7854 38509 2
60.6585 18.5527 20.1896 31004 1
64.6537 21.0174 21.6965 21892 2
62.9428 18.9533 21.28 31021 1
62.7766 20.0406 24.1197 38322 2
65.2465 18.2489 23.1727 30999 2
66.7013 20.4955 23.3849 20998 1
67.525 19.6865 20.9136 31023 2
69.2736 21.5792 23.1385 19245 2
67.1042 22.2807 21.2476 31293 1
70.16 18.2391 23.2268 38366 1
73.1093 18.8768 22.8496 21403 2
70.9638 20.2505 21.4646 30996 2
73.0853 22.2209 22.6964 12413 2
74.2523 20.2784 20.5439 31289 2
20.8172 23.8807 22.7034 25062 1
19.2693 25.7192 21.3767 970 1
17.9189 23.6658 22.6859 1928 2
19.537 26.0327 24.1224 1883 2
21.6908 25.6087 21.078 52493 1
67.4454 24.7208 20.1486 31294 2
23.9776 23.5085 23.3707 25024 2
25.4296 23.0243 20.4315 926 1
22.7981 23.3806 20.9141 1942 1
22.4015 25.7568 23.192 1888 1
24.5472 25.826 21.2029 25061 2
25.4374 26.3423 24.4472 1025 2
26.5796 24.6514 22.6281 1945 1
29.1633 23.3455 22.2367 1895 1
30.3462 26.0555 21.977 40920 2
28.8242 25.1605 24.3383 1944 2
26.2522 23.5555 24.7119 1884 1
32.1349 25.2604 23.9765 25060 1
31.9835 23.3229 21.4515 989 2
33.7886 25.8974 21.751 1035 2
34.972 24.0031 23.9839 25027 2
30.8887 23.0623 24.1035 25026 1
35.5604 23.2522 21.0327 40928 2
36.992 25.5873 22.1521 2729 2
39.5874 26.65 21.5827 2836 1
39.5812 24.0413 22.7192 3770 2
39.4501 26.7591 24.5141 1958 2
39.4669 22.6064 20.5569 2790 1
36.6912 26.4297 24.5728 1951 1
41.225 24.9939 20.9882 1956 1
42.474 24.3769 22.9489 2782 1
43.4752 24.4534 20.7656 41801 1
42.9197 26.8683 20.2535 1897 1
44.9212 22.6877 22.7542 43705 2
48.495 23.8331 22.0129 40989 2
45.8654 25.8981 21.6364 40939 2
46.7086 24.4974 24.0058 1153 1
44.2866 26.0551 24.6281 2837 2
51.3912 22.5882 23.1378 1110 2
49.069 26.3244 20.3262 23205 2
50.1953 25.9545 23.3428 2020 2
51.5971 24.2196 20.2541 19180 2
56.5489 22.5357 24.1537 23172 1
52.6336 24.9837 22.462 23642 1
56.6817 25.0643 23.4489 18330 2
54.2438 23.6453 23.6364 40030 1
54.8465 23.8801 20.8663 40025 2
57.4537 25.2263 20.4685 18326 1
57.7033 22.7709 21.5149 38629 2
60.1 23.1946 23.1831 20148 1
59.3711 26.5221 20.6261 19227 1
59.2071 25.5447 22.9821 246 1
60.3048 23.9268 20.4232 199 2
61.9114 26.2891 21.9813 19229 2
62.6176 23.2157 22.5783 19285 2
64.8467 25.7546 22.6868 20106 2
65.0647 23.5834 21.1004 18327 1
66.7538 23.3046 23.6152 31002 2
69.6623 24.4196 22.2746 1065 2
67.611 25.9733 22.7942 19241 1
17.7734 33.1205 56.504 51337 2
71.834 23.3507 20.7672 12457 1
71.7363 26.141 21.4014 30290 1
73.6204 24.7158 21.9373 43162 1
71.624 25.4676 23.7284 19299 1
74.039 24.3876 24.3426 20157 1
20.751 28.1013 22.2329 1933 2
17.9244 29.6553 22.4219 63536 2
20.6589 30.2408 24.285 63546 2
19.9862 29.7457 20.3556 72807 1
22.1612 30.7102 21.6232 1071 2
23.5812 27.9818 22.5361 63545 1
25.2212 29.5074 21.0853 1023 2
25.8403 28.7744 23.697 40916 1
23.7585 30.466 24.057 1018 2
27.5597 27.16 22.2206 39954 2
29.8976 28.6872 21.7161 983 1
27.7878 29.9276 22.2957 40965 1
29.7825 30.6454 24.4217 1947 2
29.4986 27.7482 24.4266 1949 1
29.4651 30.8315 20.5554 979 1
74.9374 34.2219 70.712 28670 1
31.9635 28.3734 23.3263 41845 2
32.883 29.5464 20.6387 41885 2
33.8563 30.5357 22.9846 1033 1
35.2601 28.3202 22.2606 40926 2
36.813 30.5911 23.4029 2010 1
37.6581 29.9948 21.1179 2000 1
37.9033 28.2912 22.8596 1083 1
37.9472 27.6989 20.2603 2779 1
42.0094 27.2962 22.7295 41842 2
40.3109 29.3056 21.1606 1907 2
43.2879 29.7076 20.4557 2001 2
42.9132 30.1555 23.723 43703 2
39.7824 29.8571 23.91 40975 2
47.4805 27.1406 23.8014 40935 2
44.5895 28.0373 22.5631 40985 1
45.6288 30.3319 22.1261 41032 2
47.3304 28.3684 21.475 41894 1
48.1403 29.8582 23.4011 1954 1
52.0346 27.2377 21.0866 1165 2
49.7624 28.5111 22.0096 42717 1
50.4371 30.7429 23.3101 42715 1
52.2101 28.8552 23.407 40996 1
51.9416 30.6111 20.9094 1163 2
49.0503 30.9455 20.9173 41898 2
50.1116 28.6453 24.4647 2026 1
54.0426 26.718 23.5021 20144 2
55.4595 26.982 20.9087 19382 2
54.0757 29.1989 22.1501 1105 1
55.6529 30.5736 20.529 248 2
55.9697 29.0139 24.0514 1973 2
57.8897 27.8379 22.6068 19231 2
59.187 30.2355 23.9934 200 2
60.4611 28.9347 21.4555 2792 2
58.5308 30.6178 21.4512 1109 1
60.4539 27.6159 23.8503 19243 1
66.2657 27.1707 20.9433 18337 1
63.812 28.6334 21.8584 19242 2
62.3731 30.2327 23.9413 20214 2
69.1401 27.2953 20.6732 30998 2
69.9072 27.7105 23.5706 19186 2
66.8691 28.7381 23.2837 12515 2
69.2764 29.811 21.8289 43818 1
66.8806 29.6862 20.3866 30833 2
68.9196 31.013 24.5537 20158 2
73.777 27.194 23.4483 1076 2
71.6396 29.7468 23.8724 19294 1
74.3481 30.49 23.3732 19300 2
74.6926 29.091 20.7825 43804 1
71.9518 28.8766 21.1784 18339 2
74.9118 70.8763 71.7295 28812 2
19.1456 32.3431 22.1329 1017 2
21.826 34.3555 21.4815 1060 2
20.1128 35.3133 23.1517 63543 1
18.2037 35.0024 21.3875 1121 1
21.8651 32.7729 23.6293 1980 1
17.5813 35.2239 23.8884 2808 1
24.4506 32.8919 21.7125 63681 2
25.2521 35.5109 20.8554 43702 1
26.3201 35.2382 23.5189 1075 2
26.5034 31.7061 23.7569 20152 2
27.0672 33.7214 21.1685 1070 1
28.6895 32.4275 22.3941 1989 1
30.8209 33.2816 24.2845 2916 1
31.2086 34.8465 21.5381 1029 2
31.3901 31.721 22.2479 1940 2
33.6557 33.6951 23.0019 24974 2
32.8333 33.0425 20.3238 984 1
35.3958 31.7757 21.3424 41893 2
38.5513 32.1878 22.2868 1199 2
36.1172 34.8827 21.5798 41937 2
38.82 34.4473 20.8182 19202 1
38.4996 35.103 23.6251 20283 2
36.2686 33.0897 23.6548 1080 1
41.2513 31.6255 22.1176 42701 1
40.9057 34.1439 22.1556 2002 1
43.4984 32.5341 21.1447 41848 2
41.2635 32.7784 24.3148 2004 2
42.0797 35.5447 24.307 2944 1
46.1233 34.9997 21.2003 2067 2
47.6522 32.7112 22.5304 237 2
44.5839 33.0777 23.9694 43700 2
49.3557 34.6071 21.82 41035 1
51.0209 33.2515 23.0169 2022 2
50.836 33.2969 20.3316 291 1
53.5221 31.3469 23.9175 1164 2
56.5925 31.8666 23.0902 2077 2
54.7784 33.8477 24.0506 249 1
55.817 34.3589 22.0656 19334 1
53.6529 33.0473 21.5042 20251 2
61.1465 31.9296 21.5924 1112 2
59.1211 33.1553 23.3241 19233 1
60.7296 34.763 22.4957 43165 1
58.3577 33.5519 20.8262 241 2
64.1935 31.0319 20.5658 18380 1
65.2751 31.3215 23.1328 19289 2
63.6965 33.8235 20.9362 19232 2
62.9824 33.1381 23.5687 19341 1
65.0057 34.474 23.6669 19339 1
66.0536 35.2044 21.5808 20215 1
62.5912 35.6678 23.8661 20213 1
66.1853 32.6694 20.7621 19288 1
67.9315 31.65 21.9523 20162 1
68.4601 34.2212 21.0661 19349 2
69.9273 33.9701 23.8254 19295 2
67.1483 33.161 23.6518 19293 1
73.7805 31.2931 20.8964 19297 1
70.8893 31.9142 21.7733 19246 2
71.4361 34.785 21.8107 25899 1
73.5493 33.6186 23.0524 19301 2
73.2329 33.8149 20.0935 43988 2
20.1844 36.6572 21.1806 63542 1
18.4532 37.6332 22.7318 63539 2
21.73 37.7629 23.1297 1979 2
17.9025 38.3695 20.2725 63669 1
23.8892 35.8026 22.8259 1069 1
22.9101 37.049 20.3077 1988 2
25.3562 38.2191 21.7853 2036 2
22.9808 39.609 21.3119 2045 1
23.5596 39.7769 23.6809 2039 1
29.309 35.4358 23.5082 1074 2
27.9183 36.2495 20.6171 41015 2
30.2371 37.9465 21.0457 1028 2
27.94 38.2232 23.2102 1122 2
33.4807 36.7225 21.8189 2829 2
31.4473 37.5332 23.3578 1079 1
32.5864 39.7523 21.9429 41941 1
35.181 39.0249 21.7758 1998 2
38.2866 37.1432 21.1284 41068 2
37.5355 38.4433 23.5278 2061 2
35.5167 36.1891 24.1575 1995 2
43.2255 35.5663 21.9589 2990 2
40.3801 39.4232 22.3899 41984 2
40.7294 36.7646 22.2152 40988 1
42.5982 38.2809 20.5768 1204 2
42.6042 37.7104 23.5477 2066 1
43.0486 40.1792 23.1301 25047 1
47.7794 35.5019 23.3729 236 1
44.7431 38.4628 22.799 41031 1
45.6723 38.054 20.2702 286 2
47.6547 38.1745 22.904 330 2
45.3386 36.2179 24.2915 2995 2
30.1858 18.1499 38.0871 5470 2
51.9663 35.5978 20.6547 1155 2
50.3899 36.6776 23.2696 1162 2
50.0934 39.0241 21.8333 290 1
52.7152 38.7253 22.0236 18473 2
50.5785 39.4386 24.3746 2074 2
53.0609 35.3581 23.052 1208 1
55.6244 36.3296 23.9055 19276 1
54.9572 36.6363 21.0245 20297 2
55.2603 38.7357 23.1803 388 1
57.5276 38.9517 21.9297 18430 2
59.6393 36.2965 20.7715 1119 1
58.0967 36.0394 22.7535 2121 2
60.9374 37.7695 22.7227 19286 2
59.047 38.1435 24.3887 18376 1
17.777 53.6804 50.2078 9516 2
62.3586 36.0849 21.0923 19236 1
64.3877 37.278 22.8133 19281 2
65.306 39.3183 20.3973 18433 2
62.9324 38.3114 20.8715 44031 1
67.4712 35.899 23.9094 19291 2
66.8924 37.7712 22.1577 163 1
69.6579 36.8842 21.921 18437 2
68.413 39.4318 20.7322 18439 2
68.65 38.823 23.706 19340 1
67.4024 36.7033 20.1406 19290 1
70.7077 39.5097 22.5733 20353 1
72.5249 37.2994 23.0648 19352 2
71.3099 38.8125 20.4899 18443 1
72.0188 36.5684 20.3417 18386 1
73.5346 38.4573 20.4501 18489 1
20.1151 40.0575 21.6603 63537 2
18.5338 42.2657 22.3785 63648 1
20.8382 43.3331 23.4056 63528 2
18.3348 43.7193 20.3631 63651 1
21.1509 43.9516 20.4773 48570 2
22.374 41.6487 22.0511 21093 1
25.123 41.3028 20.8551 41066 2
24.0247 44.0116 21.9916 63650 2
26.1404 40.6959 23.6814 2037 2
23.9582 42.519 24.417 63091 2
26.4552 43.148 22.6041 2969 1
30.2372 39.9914 23.2861 25055 2
28.3106 41.5027 21.1947 43701 2
28.6223 44.0511 21.9157 2049 1
28.542 42.5983 24.4751 2971 2
31.2324 42.9179 22.361 2090 2
37.2932 18.2437 22.317 22536 2
43.5017 18.2312 60.6141 5173 1
34.1467 42.0507 21.5777 2051 2
32.8851 41.2438 23.8351 1994 1
34.0377 43.5819 23.9373 41940 1
37.7692 40.4844 20.5331 41072 2
38.4552 41.1728 22.8918 1202 1
35.7519 41.2206 24.0201 2053 2
36.716 43.8295 22.5623 41939 2
74.9495 28.2091 30.6765 1459 1
39.4507 44.6052 23.1525 2156 1
39.9714 42.7113 21.1002 3133 2
42.2568 41.2819 21.1384 1200 1
43.7508 43.1907 22.3801 1251 2
40.931 42.2928 23.8402 1198 2
44.579 40.5429 21.1065 25049 1
45.9671 40.9633 23.2857 2119 2
46.3321 42.6149 20.6686 1254 2
47.1157 43.6573 23.7416 1253 2
48.7519 41.1307 22.7847 2113 1
49.1363 43.4787 21.1829 340 2
51.266 41.8346 22.084 289 2
51.4265 44.5503 23.136 25040 2
52.9383 40.6111 23.9599 20299 1
49.8341 42.6732 24.9355 2163 2
54.8582 40.8408 21.5199 18427 2
53.8998 42.7933 23.1113 39218 1
55.812 43.8394 20.5295 1350 2
57.0367 42.1792 22.8399 19337 2
48.1801 40.0176 20.4138 41038 2
60.0721 40.9251 22.0558 20206 2
61.0604 42.837 20.0125 18479 1
60.2119 43.4523 23.487 20298 2
58.5797 43.5124 21.1031 1255 1
62.2856 40.552 20.5097 18379 1
63.1243 40.2039 23.285 19338 2
62.6631 42.7495 21.9272 18435 1
64.9377 41.7982 21.4395 19384 1
65.2852 43.4428 23.3133 21284 2
66.3811 40.1329 23.2748 20305 2
69.2331 41.2662 23.0391 19389 1
67.5698 42.2046 21.9342 19396 1
68.0752 43.3481 24.5251 20308 2
69.7602 44.2 22.1237 19436 2
54.688 18.0756 25.7986 22533 2
73.3264 40.4372 22.1233 20361 2
71.5312 42.1992 22.7165 2141 1
73.23 43.604 20.732 18488 2
74.0291 43.3031 23.9107 19447 2
18.606 45.3543 22.6573 63282 2
21.7214 46.468 22.1961 53468 2
19.4072 48.3088 21.7793 63274 2
20.0855 46.9752 24.384 48662 1
24.0775 46.3144 23.5872 2088 1
23.6459 48.4555 22.4736 63527 1
26.1312 48.1598 24.0383 63281 2
26.5362 46.0059 21.7515 41064 2
28.9645 48.1144 22.746 24951 2
29.698 46.0397 20.4369 41946 2
28.2585 45.5988 23.9598 1131 1
30.4798 45.3697 23.2148 2046 1
28.0951 48.1439 19.9192 41062 1
33.2511 45.2377 21.8898 2157 2
31.8696 47.5675 20.8322 41115 1
17.5983 23.188 31.0445 2758 1
31.9268 47.1755 23.4266 2922 1
34.7393 46.1499 23.8698 3952 1
34.0557 48.6113 22.4607 2095 2
38.6487 46.2038 21.1101 41124 2
35.8713 46.5834 21.7854 41990 1
37.6198 46.507 24.1529 2159 2
36.9616 48.6158 22.2129 2155 1
42.0189 45.8531 22.5405 1293 2
42.0605 44.2085 20.2354 1249 1
44.6712 47.4961 21.7491 2169 2
39.6372 48.8014 23.0027 1294 2
74.8057 66.1162 73.8932 26597 1
44.5571 45.7138 23.7245 2162 1
45.9789 45.1057 21.8658 381 1
46.5749 46.6728 23.8781 21219 1
47.5294 48.4986 21.6664 41079 2
44.4175 44.9515 20.0272 1257 1
48.5613 45.8353 22.7228 385 1
50.2728 46.9313 21.0773 1305 2
52.8379 48.5527 22.1984 19428 2
52.7413 45.9752 20.9125 1345 1
50.9113 47.2363 24.0821 2213 2
54.2894 45.6034 23.0914 1306 2
55.3274 47.3214 20.5367 19426 2
56.3221 47.8749 23.5948 21280 2
57.573 45.0201 23.2768 1303 2
60.8345 45.35 21.3007 20338 2
59.644 47.3325 23.379 2172 2
58.0225 46.49 20.7167 20346 2
61.4317 45.6161 24.7162 259 1
62.9139 44.8702 23.0167 20304 1
63.9132 44.9372 20.3563 19386 2
64.7373 46.2482 22.9325 25875 1
62.5374 47.695 22.3081 18534 2
65.3954 47.8657 20.8844 20344 2
66.8428 44.8119 20.8017 21192 2
67.3774 46.053 23.5136 19439 2
69.0537 47.1369 20.668 18476 2
70.3844 48.4267 23.2899 2268 2
67.6333 48.7458 22.4983 25042 1
72.4848 45.9417 22.7686 20313 2
72.0875 48.2526 20.2098 19445 2
73.4894 48.4294 22.7168 25871 1
27.8094 18.1411 24.2075 1845 2
21.1529 51.3395 20.5749 53552 2
18.7063 50.8701 21.9383 54461 1
21.4568 50.1588 22.9005 63632 2
19.4031 53.4975 22.4112 63500 2
25.9064 48.9397 21.1041 2085 2
23.7706 51.0748 21.0858 63235 1
67.2138 74.7517 33.1079 23587 1
25.9168 52.1566 20.4997 2084 2
24.61 50.8945 23.4995 63483 2
22.3768 53.116 23.0324 63481 2
29.8625 49.6188 20.5338 2040 1
27.6623 50.8781 22.9781 2089 2
30.1769 52.1353 21.5723 40239 2
31.4163 49.4375 22.5426 40237 1
34.351 52.3445 20.8107 41120 1
32.9245 51.5949 23.0875 41114 2
39.9406 74.9626 40.1751 7262 2
70.6203 41.5993 20.2149 19401 2
67.5413 49.459 20.0436 25893 1
36.0024 51.6816 22.8226 378 2
38.4481 51.1142 21.2255 18505 2
37.8655 50.5851 24.5967 1336 1
39.6198 52.3809 23.6883 1339 2
41.4116 51.6541 20.8751 431 2
41.8621 48.7418 20.9487 2207 2
42.2271 50.5722 23.6019 2200 2
44.2815 52.237 23.3384 1386 1
44.6895 50.5013 21.1214 383 2
46.4459 52.6503 22.1655 438 1
45.3781 49.5423 23.9444 1295 2
47.9893 50.6944 23.4344 2240 1
49.9077 49.3144 22.7795 394 1
49.2044 52.0506 21.5208 3092 2
51.085 49.8606 20.7803 1351 1
53.0366 51.0257 20.3995 436 1
52.0861 51.6351 22.7629 25001 2
55.3746 50.2918 21.9337 1268 2
54.3197 53.0401 21.3115 1352 1
56.5732 52.8608 22.2779 1267 1
57.3895 50.7985 23.4677 1310 1
58.1128 49.0854 22.0006 19470 1
60.4407 48.9469 20.271 19481 2
58.3824 51.2951 21.1086 3150 1
60.3235 50.301 23.0596 20342 2
60.7321 52.6142 20.9625 20390 2
58.9132 52.8715 23.2551 19379 1
65.1855 48.6505 24.2722 20351 2
65.9785 50.4965 22.2504 20397 1
63.2155 50.6702 21.7036 19483 2
62.7053 51.3758 24.5852 20392 2
67.5074 52.2064 20.5397 19482 2
69.7553 49.9514 20.985 20352 1
68.4709 51.252 23.3254 19488 2
67.991 48.6218 24.9433 1224 1
17.7937 65.7064 70.734 13287 1
70.6853 52.9312 23.1449 20402 1
74.6274 49.3977 21.0456 19492 1
72.0826 50.7698 22.2605 19532 2
20.8964 56.0551 23.3566 48680 2
21.1514 56.5309 20.399 63468 2
18.5401 57.4787 22.6383 63187 2
50.441 18.3264 49.7457 7697 2
23.283 53.9577 20.7397 63634 2
25.4947 53.8665 23.4233 63188 2
23.9507 56.9823 22.1346 63433 2
26.1543 55.5442 20.9292 63479 2
23.2001 55.3185 24.3134 63485 1
27.7157 53.4304 22.1829 3022 1
29.5398 53.2956 24.2033 2195 2
30.0007 55.2072 21.7123 25023 2
27.9642 56.1381 23.4573 63272 2
32.3614 54.1227 22.2757 41977 1
32.6213 56.9089 21.6968 1382 2
34.9162 54.8906 21.5335 428 2
34.2045 54.155 24.2724 41170 2
33.7132 57.1378 24.265 24941 1
17.8545 62.9242 42.4704 57549 1
37.6057 53.8852 22.5028 477 1
36.4573 56.5761 23.5871 376 2
37.7415 56.0408 20.4624 1338 2
39.1053 53.7909 20.8743 25067 1
39.4917 55.784 23.7062 3191 2
43.7636 53.7086 20.9003 435 2
41.1963 54.1499 22.0805 19545 1
42.9604 56.0159 22.2737 481 1
40.5826 56.6834 21.1538 429 2
41.8357 56.8254 24.5443 2333 1
47.9755 53.4194 24.1776 1297 2
44.9749 56.8528 20.739 479 2
48.4478 55.2297 21.6578 1348 2
45.4301 55.0234 23.3426 1390 2
48.6698 56.3149 24.649 20463 2
46.8818 57.5723 22.8699 1393 1
51.7105 53.9506 20.5048 1392 2
50.6494 53.9396 23.4154 19565 1
50.9337 56.0304 22.1677 491 1
52.893 54.54 22.7657 1399 1
54.7748 55.528 20.7763 20435 2
56.9617 55.2955 23.3528 25887 2
54.6415 53.3364 23.844 19469 1
54.4132 56.0315 23.6012 19657 1
58.45 54.1792 20.6137 19517 1
60.3378 55.87 20.3945 18630 1
59.6748 55.1275 22.6769 25865 1
57.7367 56.7206 20.7763 1401 2
61.449 56.7014 22.3301 19572 1
61.9152 53.8159 23.5308 19476 2
64.9172 53.0779 22.3474 19486 2
62.8634 55.0322 20.5052 19570 2
63.7273 55.902 22.9883 19520 1
65.8976 55.902 22.5882 19585 1
68.4121 54.4614 22.3117 19524 2
67.2137 53.8089 24.4582 25888 1
67.876 57.4769 21.1606 19586 2
67.5786 57.0695 24.2264 19626 2
70.1964 56.079 20.5061 19584 1
71.2313 53.5315 20.6178 19489 2
72.4675 56.0417 20.8151 19533 1
70.7821 55.9657 23.3908 20444 2
73.2384 53.9806 22.8408 19530 2
73.3181 57.0647 22.8413 19534 1
27.8908 24.4883 20.3706 1943 2
19.2698 61.0461 21.5981 53700 2
21.3154 58.7546 22.0976 63438 1
19.5666 59.4853 23.9512 63040 1
21.0131 61.7595 23.7844 63425 2
22.6484 60.7418 21.4113 63600 2
25.2166 59.7719 21.6359 63410 1
25.2459 58.7337 23.9119 63042 1
24.3031 61.2793 24.2601 54632 2
17.8013 54.8102 64.6203 13136 2
64.1425 74.5481 29.5189 21783 1
29.6104 58.4701 22.4885 24954 2
26.9002 58.1651 22.1217 53557 1
17.6888 58.8648 57.1286 10500 2
27.3271 61.0957 23.0854 63227 2
35.0229 59.0823 22.4599 19499 2
38.4785 58.7501 22.303 1385 2
37.2364 61.5231 21.3153 2288 2
38.5662 61.0635 23.6309 2286 1
35.8641 61.6967 24.2049 24997 2
42.9391 58.742 20.953 19607 1
41.479 59.0333 23.0222 24937 2
40.0733 61.4893 21.5582 526 1
43.0649 61.6087 21.5609 1440 2
33.3288 18.1452 36.4532 3661 2
44.3049 57.7462 23.5872 1387 1
45.062 59.8588 20.3891 1391 1
46.572 60.1316 22.82 1445 2
47.2491 60.7802 20.3533 1395 1
47.7588 58.2581 20.0449 18712 2
52.9222 57.7348 22.308 1398 2
49.5659 58.1949 22.4866 1447 2
49.5317 60.6973 21.5017 19616 1
51.3719 60.1627 23.753 19569 2
48.9441 61.0653 23.7733 1444 1
34.2287 18.1111 53.7674 18013 2
55.2251 59.1174 20.6644 20473 2
53.5914 60.753 22.3114 2342 1
56.1143 60.9499 22.6872 25862 1
56.0066 58.3622 23.4536 448 2
67.7092 18.5067 36.4638 9386 1
58.1486 59.7771 21.291 19618 2
59.1758 57.7196 23.6521 444 2
60.844 58.4632 20.4485 19575 2
60.1953 60.2448 23.4912 20476 1
61.4301 59.0633 25.3374 20480 1
61.0385 61.5589 21.3385 18729 2
64.482 57.6883 20.6931 19574 2
62.7087 59.1387 22.7281 19580 2
64.8897 62.0466 23.6929 19625 1
63.9401 61.3649 21.4447 1455 1
65.9893 59.942 22.4505 1420 2
68.8228 60.3367 22.539 20487 2
67.4041 61.8587 24.0621 20533 1
69.7169 58.4596 24.3868 20488 1
71.1081 58.4928 21.6011 20485 2
73.8037 59.7357 21.7995 19593 2
71.1626 61.3075 21.1284 19632 1
71.5523 60.9562 23.6404 21396 1
21.0388 63.6862 21.0602 54635 2
18.8022 65.423 20.8101 50596 1
18.3429 63.3007 20.5054 53783 1
21.4997 65.0338 23.8018 63177 2
18.8924 63.957 22.9425 55588 1
19.4277 66.3845 22.9417 54678 1
25.2712 62.099 21.6585 63474 1
23.354 63.4362 22.6998 63141 1
24.2293 64.3342 20.3165 63411 2
23.8797 66.0011 22.6684 63140 1
26.3549 64.3014 22.6716 63144 2
38.5384 63.8081 23.3136 2328 2
41.1304 61.8437 24.1167 1439 2
42.3867 63.8248 23.5525 572 1
40.8293 66.0117 23.866 1482 2
40.9563 64.0267 21.1232 19546 2
43.7303 65.7182 21.9503 18753 2
45.5837 62.2169 21.1963 525 1
45.2315 63.2308 23.5365 1442 2
45.8855 64.4577 21.1923 579 1
48.2277 63.1542 21.8832 1446 2
47.0058 65.965 22.8128 578 2
51.7529 62.798 21.694 19660 2
50.4307 62.9706 23.8427 25036 1
49.647 65.4458 20.3803 1487 2
49.8422 65.2907 23.0427 2338 1
52.5713 65.4678 22.7287 2381 2
54.6208 63.2196 22.2362 19665 1
56.4968 65.4535 22.9395 2430 2
56.5349 62.0789 20.5645 18770 1
56.0551 62.9019 24.3742 20518 1
48.8874 36.7335 20.4912 40108 2
58.3223 62.915 22.3475 20521 2
61.0273 64.2596 23.2171 19670 2
58.6711 65.655 20.955 25882 2
60.5473 63.9064 20.4992 19622 1
58.5472 64.3494 24.5427 20522 1
61.8948 65.8339 21.0833 25901 1
63.9579 64.1658 22.0209 18779 2
62.5926 62.0075 23.6926 25860 1
66.194 65.3814 20.7493 19629 1
66.3237 63.9836 24.0675 2354 1
66.7735 62.7472 21.421 546 2
68.1074 65.6334 22.7025 18736 2
69.549 62.7688 20.8377 18742 1
70.022 65.0818 20.8177 1461 1
69.7111 63.2298 23.3151 20527 2
73.8234 61.8564 20.2841 18692 1
72.6887 63.1367 22.5273 19679 2
71.7473 66.0562 23.0223 21693 2
74.4709 64.2453 20.5962 21801 1
74.7669 26.6774 49.3142 28188 1
74.3296 65.3124 22.7847 22590 1
21.6697 66.7741 21.0601 48693 2
19.052 68.0734 21.4623 63142 1
21.1867 69.5056 21.158 63128 1
20.9663 68.5835 23.8367 54677 2
17.9877 68.0647 24.175 63016 1
18.9666 70.5362 23.0182 54810 2
23.5312 68.4432 22.2311 55682 1
25.4837 66.8336 20.8224 54813 2
25.7868 67.425 24.0001 63139 2
24.9252 70.2833 23.0088 50703 1
75.0363 21.1424 45.8056 1279 1
27.0237 68.9393 22.4524 1383 1
43.7143 67.91 23.8442 2420 2
46.266 69.2509 21.871 1483 2
47.6698 71.0477 23.7308 3300 1
48.3747 68.7149 23.6863 1528 1
48.635 67.7213 21.5085 19699 1
51.9179 67.5504 20.4781 632 2
49.3276 70.5907 21.5513 1531 2
50.8639 67.9631 23.2928 1488 2
52.732 70.3163 21.5266 19711 2
52.888 69.7544 24.2408 1534 1
50.1241 70.5912 24.4573 2426 2
54.5624 67.9962 22.5421 1533 2
54.8605 70.7363 23.2848 2431 1
75.0503 44.7106 74.4728 27825 2
58.1283 70.0268 21.3108 2425 1
57.491 68.5664 23.432 2439 2
59.4476 70.5353 23.3961 25855 1
60.7038 68.3957 21.7745 19718 2
59.6759 66.4778 23.3226 20569 1
62.3347 66.4059 23.7838 19624 1
63.2222 70.3405 20.7664 19672 2
63.3559 67.5901 21.5524 25856 1
65.4827 70.1868 22.8882 20824 2
65.1837 66.7288 23.2863 20529 2
63.2084 68.7894 23.4435 20571 1
65.6941 68.1695 20.2822 21739 2
67.802 68.2836 22.3005 25881 1
68.0897 66.7159 20.2485 21691 1
67.6917 70.5205 21.4939 21740 1
69.9083 68.5036 23.5581 25816 1
70.2636 67.7582 21.0497 2396 1
69.9783 70.2324 21.8425 18741 1
19.6465 18.2348 30.0188 2714 1
72.5778 68.926 21.9632 2592 2
74.1266 69.6235 23.8537 21748 1
72.2518 68.1422 24.6941 25853 1
20.6745 72.4627 21.2357 63116 2
19.0533 73.8164 23.94 54859 2
21.7944 73.1389 23.7498 63010 1
17.6386 72.5042 21.5827 63105 1
22.345 70.7468 22.892 63124 1
23.8167 72.3873 22.2501 3538 1
23.1938 71.1965 20.4239 54814 1
25.307 74.3865 22.1076 4502 1
24.9458 72.474 24.706 63125 2
53.2068 43.5563 20.9071 1307 1
27.8858 74.2567 21.3407 3589 1
27.6491 71.6053 22.5279 3587 2
29.9495 73.8903 22.9857 63178 1
29.9197 71.6258 24.1769 4458 1
27.0692 74.2727 23.5926 24854 1
32.0465 73.8142 24.5318 24933 2
52.7456 72.5002 23.8967 1537 2
55.5904 70.7195 20.7724 25821 2
55.2698 73.4264 22.34 22631 2
57.2628 74.3128 24.0252 21729 1
60.3305 71.229 20.6374 19667 2
57.9231 72.4194 21.8426 2432 1
57.7217 74.819 21.8782 12850 1
59.8687 74.1414 20.6935 25814 1
59.7656 73.4065 23.3835 20618 2
61.9169 71.0504 23.5675 20619 2
62.5714 73.4563 21.3625 21788 2
65.1589 73.736 20.6327 20827 1
64.6593 72.7931 23.5627 22588 2
67.3759 73.2021 22.0311 21781 2
27.8152 60.267 20.1978 5799 2
68.475 71.07 24.1149 21737 2
70.5246 72.9529 22.5174 22688 2
71.949 71.1239 20.3069 21785 1
73.8488 71.9947 22.0878 20834 2
71.7581 70.9321 24.4328 22642 2
72.6206 74.909 21.6723 20880 2
18.0023 19.5445 28.0042 59349 2
20.1024 19.1986 25.7087 1881 2
19.4994 22.1312 27.2396 20051 2
21.4251 19.7975 28.4226 2716 2
22.245 21.5668 26.3326 25064 1
72.3527 72.6073 72.0884 15179 2
23.9985 19.5809 26.5277 20009 2
24.1404 18.33 28.9471 2718 1
50.6115 18.1702 74.4251 15477 1
26.9186 21.4478 28.356 2772 1
26.999 20.6155 25.7763 2717 2
29.2154 19.0043 28.008 1847 2
29.1013 21.7814 27.4203 2776 1
31.1889 20.8436 26.1164 1891 2
33.8369 20.6247 26.9198 987 1
34.8256 21.4889 25.0522 2726 1
32.3315 20.006 29.1356 3653 2
36.7982 18.2083 26.9669 3659 1
35.949 19.3516 24.7673 20120 1
38.5293 19.23 25.12 21910 2
39.4937 22.0661 25.1228 3657 1
36.7689 21.4578 26.6721 1900 2
38.8159 19.6747 28.2437 3663 2
41.2327 20.378 26.1184 22582 2
43.9504 21.1479 25.0162 21871 1
41.4891 20.5354 28.8958 25771 1
43.0514 22.4773 27.4501 2784 2
43.8643 18.4087 25.9138 22714 2
43.9862 19.4177 28.9666 3667 2
74.9328 29.746 46.5738 27254 1
45.54 20.3724 26.7556 12875 1
48.0277 20.1111 25.782 23264 2
47.383 19.6049 28.998 21060 2
45.7309 22.211 28.8656 2791 2
48.8328 22.1417 27.8368 2736 2
50.6875 21.477 25.8124 21895 1
51.4389 18.7896 25.668 3670 2
52.0809 22.1784 27.8838 22570 2
50.048 19.7608 27.8208 22528 1
52.3043 19.5171 28.3639 21898 1
56.1778 20.1047 24.5621 23127 1
54.9402 20.5065 27.5981 22564 2
53.3172 21.1182 24.9692 2785 2
57.329 22.533 28.2724 12459 1
57.2993 19.0597 28.7481 21893 2
74.8125 67.8513 30.1269 25747 1
57.276 21.2281 26.3341 23632 1
58.1353 18.5945 25.7852 11602 2
60.6528 19.3386 25.5239 20993 1
59.7301 21.0565 27.466 20141 2
61.2196 21.9416 25.057 20104 1
17.8243 63.0355 66.5062 13234 2
62.8763 20.4123 27.0601 25850 2
65.8141 20.7452 25.8108 11550 2
65.0155 19.0157 28.0267 31025 1
64.5101 18.2395 25.7058 12897 1
68.1507 19.0861 25.1276 30802 2
69.957 20.2469 27.1593 1659 1
67.534 19.572 28.2916 30814 2
66.93 22.2664 28.131 12415 1
68.5931 22.3072 26.0048 12867 2
74.229 18.2811 25.7962 12895 2
71.5672 21.9292 27.5121 11516 1
71.3291 19.935 24.8723 22613 2
73.9299 21.3714 25.4502 30808 2
72.3155 19.5711 27.5206 12506 1
74.3972 22.2597 27.8809 12890 1
54.5174 75.0394 24.9689 21728 2
19.5999 23.325 24.8788 1887 1
19.5052 25.1345 26.6837 1930 1
17.5037 52.558 53.1612 24539 2
21.9764 25.9248 27.3972 2818 1
22.0926 23.3793 28.3137 1841 2
22.0754 24.3364 25.4129 1886 2
24.6933 22.8784 26.7176 24990 2
24.526 25.8588 27.3894 976 2
27.3603 24.1171 27.0276 1889 2
28.7037 22.4674 24.9675 936 1
30.0598 23.7861 26.2783 2771 1
29.7588 25.5216 28.7358 1892 2
34.0752 26.5983 25.2576 25028 2
32.8726 23.3883 26.0359 2775 2
31.0923 26.6302 26.3568 1946 2
34.2559 22.5629 28.9648 1948 2
33.194 25.3371 28.2908 2825 2
31.0792 22.9535 28.978 2724 2
35.3558 23.9914 26.6642 2778 1
37.7198 24.2545 25.6358 25025 2
39.2374 26.3979 27.3243 4664 2
37.167 23.8388 28.3124 5526 1
36.1542 26.2615 27.5084 2828 2
43.7279 23.7008 25.1414 22532 1
39.6136 22.7181 27.718 3662 2
41.1304 24.2743 25.5733 23152 2
42.3985 25.7858 27.682 3759 2
46.3429 22.7601 26.0811 4627 2
44.9252 24.5891 27.5066 21900 1
47.342 25.8811 26.3848 2786 2
47.2584 24.2987 28.5119 4629 1
46.2908 26.5574 29.0312 3720 1
49.3197 23.7013 25.1643 750 2
52.3184 24.6511 25.4207 2024 2
50.2171 24.9217 27.7667 1107 2
53.3792 24.3848 27.8182 21056 1
54.9552 26.3165 26.191 40027 2
55.2498 23.2254 26.2963 30857 2
57.2095 24.918 27.5801 2028 1
54.5274 22.8407 29.226 2851 1
55.1282 25.512 29.1749 1056 2
61.2578 25.0903 24.8658 713 2
58.6187 23.5822 25.7028 20098 2
60.5804 25.885 27.1749 20201 1
59.5981 24.1292 28.9078 20143 2
61.698 23.391 27.3009 20096 1
63.6731 23.2967 25.0781 20100 2
63.3612 25.765 27.0223 19684 2
64.4131 22.9953 28.1508 25880 2
66.2074 26.0051 25.1742 25879 2
65.9858 23.726 26.2149 12414 1
70.3685 24.3069 27.6057 20160 1
69.0793 25.3704 25.2716 19196 2
67.5195 24.8381 28.2075 12419 2
71.3848 23.1655 24.9486 22672 2
73.1024 24.3245 26.9219 1651 2
71.7026 26.0378 28.8877 21047 1
51.577 60.0635 20.1127 534 2
18.4292 28.7323 24.86 63548 1
20.276 27.9012 26.9501 2763 2
18.9401 30.7198 26.6845 1936 2
21.2534 30.2158 28.3581 1982 1
17.8354 28.5978 28.9931 56033 2
22.5697 29.8471 26.3554 1929 1
22.4506 27.4851 25.1165 1885 2
25.272 29.2015 26.4282 1941 2
23.2139 28.2335 28.647 2859 2
26.0314 28.2041 28.816 1935 1
24.3589 31.0816 28.6054 2912 2
27.5858 27.0511 26.8366 2769 2
27.6162 29.2968 24.9809 25059 1
29.5487 29.1048 27.2203 2864 2
32.0554 29.1071 25.9001 2872 1
34.3822 29.4708 25.1384 24982 1
33.5102 27.9613 27.4617 24984 1
32.2626 30.8168 28.0219 1993 2
37.0135 28.8694 25.599 2831 2
38.1943 30.1241 28.0232 2862 1
35.2533 29.7926 27.865 3752 2
39.5854 29.0154 26.493 2873 1
43.1389 29.1985 27.7915 2789 1
42.0511 27.8946 25.6835 2069 2
41.3802 31.0194 26.9508 2054 2
40.7639 28.3906 28.7524 2879 2
44.0152 31.1363 25.9058 3713 1
44.7195 27.1266 27.2203 2006 1
45.3959 28.8423 25.4061 41849 2
48.1918 29.3582 26.3388 2072 2
45.6662 29.3951 28.6457 2984 2
48.2192 30.1373 28.9611 2897 1
48.7964 27.4854 28.2251 2893 1
49.7093 26.8183 25.946 2027 1
52.4649 26.8446 28.313 2898 2
52.1596 27.3894 25.3884 42770 1
50.8412 28.5363 27.0922 3666 1
52.7089 29.932 28.5804 1156 1
51.2322 30.7968 25.9282 25056 2
53.8118 29.2587 26.2351 23129 2
55.9058 27.8251 27.9492 2071 1
55.0092 30.3839 28.2186 2029 1
58.3158 26.9089 28.8151 3827 2
58.2357 26.7333 25.5748 19234 2
57.5017 29.6385 26.7317 20145 2
60.8146 28.6487 26.2621 25878 2
61.4935 27.4382 28.6574 19239 1
59.6091 29.1542 28.9049 2856 1
63.1695 27.3762 24.6696 20151 2
63.3146 28.451 27.5306 20209 1
65.1053 29.3547 25.5387 21002 2
62.7223 30.5725 26.5261 20257 1
65.1701 30.6225 28.4111 20150 2
66.1214 27.4779 27.9016 20207 2
69.4472 27.2014 27.8112 21054 2
68.149 28.1017 25.6211 20216 1
68.112 30.2281 27.5254 21044 2
70.4455 29.3411 26.0907 20159 1
71.8533 26.8043 26.1161 20113 2
70.9198 30.0287 28.3371 20149 1
73.5337 28.7919 25.4794 18336 1
72.6464 30.6549 26.4212 19249 1
72.9659 28.3405 28.6104 20165 2
19.3635 33.3447 25.0679 1934 2
20.7409 34.8369 27.9072 1977 2
18.6345 33.1614 27.7129 2811 1
24.292 33.5728 24.5146 1983 1
22.2566 35.2147 24.8316 1981 2
22.0156 32.286 26.4633 2863 2
26.4282 34.2471 26.5929 2042 2
24.6865 32.0866 26.169 1986 1
24.015 34.0507 28.4804 2957 2
27.4736 31.3821 27.0639 2817 2
26.4974 32.9391 29.3498 63326 1