ITEM: TIMESTEP    
200000     
ITEM: NUMBER OF ATOMS  
77888     
ITEM: BOX BOUNDS pp pp pp
17.607 132.393    
18.0782 131.922    
29.1597 120.84    
ITEM: ATOMS x y z id type
19.8433 19.3535 31.882 1881 2
21.5569 21.6719 30.8416 977 2
18.9777 20.5067 29.6295 72779 2
19.3548 21.912 32.7867 1887 1
22.6332 18.8444 31.5391 1839 2
25.1513 19.8086 32.4153 22628 1
24.1852 20.9216 30.6124 926 1
23.1763 20.9427 32.8377 1848 1
25.2249 18.5406 30.306 23170 1
29.5321 19.6399 31.5282 20062 2
26.826 21.1193 30.7708 1846 2
29.8356 21.8347 30.043 1895 1
27.3195 18.1013 32.2425 1845 2
33.9422 20.4663 32.248 43709 1
34.3309 21.5487 29.8456 19151 1
34.3519 18.642 29.8986 24988 2
31.7704 21.2701 32.65 25026 1
32.1226 20.125 30.3626 25063 2
32.4665 18.6261 33.6148 23637 2
36.5634 20.1748 30.8342 1851 2
39.2945 21.1485 30.8565 22537 2
38.1326 21.4388 33.2776 1899 2
35.8088 20.6067 33.4105 20120 1
37.8426 18.4617 32.7462 22536 2
39.4007 18.5988 30.6177 1904 1
40.703 18.7246 33.0042 1854 2
42.2858 20.4148 31.2503 21871 1
43.1999 21.6652 32.8629 3665 1
40.9251 21.3125 32.9462 3657 1
43.1322 21.4146 29.3585 43668 1
43.966 18.6332 32.6182 23128 2
44.9369 19.588 30.4794 1099 2
47.3661 20.8416 30.5181 40834 2
45.63 20.7465 33.3186 4627 2
48.1189 21.7665 32.9762 1908 1
47.4528 18.5555 32.4042 22576 2
49.9425 19.01 30.3611 38521 2
49.8446 21.6001 30.2495 40893 1
49.9934 20.1326 32.7817 22529 2
52.4221 20.8459 30.4655 38365 2
52.7146 20.1611 32.907 22574 1
52.8215 18.2436 30.35 2787 2
55.7903 18.8708 30.3201 21944 1
54.8565 20.3727 31.8234 12513 1
55.1656 21.7111 29.684 39988 2
56.4918 21.9917 32.3458 13500 1
56.6375 19.6634 33.6436 11602 2
54.4772 18.1142 32.2459 22565 1
60.097 21.836 30.0855 31298 2
60.3253 18.6167 32.5273 19184 2
59.4522 21.9328 32.5388 31285 2
60.2521 19.1712 30.0461 31004 1
57.847 20.1861 30.7568 38509 2
62.253 20.332 30.9977 31021 1
64.4841 21.5424 31.987 21892 2
64.0693 19.7887 29.6171 30371 1
63.773 18.5462 32.3617 30999 2
62.0384 20.6125 33.5879 38322 2
62.891 22.1874 29.5048 30803 1
65.5251 22.1684 29.2047 30838 2
66.583 20.6566 33.0005 20998 1
66.3866 19.2508 30.8079 31023 2
67.3453 21.5117 30.78 31293 1
69.1887 19.9372 30.8977 30997 1
68.1138 19.0196 32.7454 30809 1
69.3203 21.1815 33.395 19245 2
70.3557 18.7935 32.4616 38366 1
71.7109 21.0556 31.3703 30996 2
72.8916 18.544 32.4825 21403 2
73.5338 22.3188 32.923 12413 2
74.6259 20.1199 31.0887 31289 2
71.4056 18.2702 29.9508 30343 2
18.1294 22.9486 30.5159 1928 2
20.5048 24.4121 31.4342 1885 2
20.7912 26.7543 29.8245 970 1
21.6738 22.966 33.7068 1886 2
18.2442 25.988 29.6398 72780 2
19.2248 26.7195 32.0428 63548 1
24.4995 23.138 31.6317 25024 2
22.8477 24.4963 30.2948 25062 1
22.748 25.1902 32.5992 1888 1
26.2171 25.5344 32.1516 1945 1
25.2053 26.5519 30.1576 25061 2
26.8398 23.1227 32.5821 1884 1
27.7176 24.3726 30.4389 1943 2
28.3195 25.3133 33.496 1889 2
29.5445 22.7315 32.3693 1944 2
30.3052 24.4707 29.5545 933 2
30.8956 25.4233 31.9786 40920 2
32.8495 23.2293 31.3028 989 2
33.6334 25.6293 33.2148 1035 2
32.5171 26.6228 30.5788 43811 2
31.5809 23.588 33.6453 25060 1
35.0229 25.0636 30.6719 40922 1
35.6166 22.8403 31.7493 25027 2
36.5544 24.835 32.9401 2729 2
37.1382 23.2219 30.0371 40928 2
37.9227 25.9128 30.4805 43667 2
39.3542 23.6385 32.1985 3770 2
39.6192 24.2712 29.564 2790 1
39.3803 26.2932 32.9757 1958 2
41.9275 23.1865 31.1394 40934 2
40.9896 25.5785 30.7894 1956 1
42.2041 25.4742 32.8823 2782 1
43.5585 25.1606 30.7923 41801 1
44.0242 23.8777 32.991 22532 1
44.773 22.5518 30.7486 43705 2
46.2877 25.3809 30.3721 40939 2
47.3825 25.5533 32.8182 1153 1
44.8499 26.4014 32.9754 2837 2
46.2885 23.3277 32.5181 21900 1
50.9519 22.5388 32.5604 1110 2
48.658 23.7213 31.3123 40989 2
51.9607 23.6445 29.9656 19180 2
50.5314 25.7572 31.451 2020 2
52.556 26.2148 29.1778 1165 2
54.0185 23.0311 32.2936 23176 2
53.2946 25.5876 31.7736 23642 1
55.1479 24.481 29.9221 40025 2
55.7042 25.3077 32.383 40030 1
57.4783 23.3338 30.3939 38629 2
57.5542 24.0308 32.8013 23172 1
57.6814 26.3786 30.9741 18330 2
59.5794 24.447 31.7058 20148 1
60.9006 26.1644 30.3365 199 2
61.8164 25.9596 33.6236 713 2
62.2283 23.6956 31.4517 19285 2
64.9126 23.8546 31.2331 18327 1
63.5949 26.2492 31.4078 19229 2
64.4899 24.57 33.5331 20106 2
66.1032 25.9579 31.9993 19241 1
70.113 25.3085 29.603 44061 2
69.5749 22.6158 30.7264 31019 2
68.6906 25.3021 32.5831 1065 2
67.1255 24.4707 30.1897 31294 2
67.1998 23.1068 32.7691 31002 2
73.0637 25.8174 29.8482 44079 1
71.97 23.6918 30.4456 12457 1
71.0734 25.9984 31.8408 30290 1
73.3131 25.0058 32.0535 43162 1
70.9416 23.7017 33.0438 22672 2
74.5274 22.8622 30.3108 39972 2
19.4474 29.1081 30.198 1933 2
21.5131 31.0974 31.5992 1071 2
18.1844 29.2622 32.2195 1936 2
21.3727 28.0104 32.3944 63546 2
20.1351 30.445 33.6477 2863 2
22.0341 29.1424 29.4367 975 2
22.936 26.8651 30.8451 52493 1
24.2846 26.8808 32.8225 63545 1
24.1887 29.3199 30.8628 1023 2
26.3524 30.4031 32.0992 40916 1
26.5371 28.8264 30.1616 986 1
28.3891 26.9645 31.0624 39954 2
26.5897 28.0565 32.8613 1025 2
28.4573 29.8785 30.7075 19240 1
30.5851 28.4309 31.2802 983 1
29.6674 27.5433 33.1541 1949 1
28.93 29.8829 33.3155 1947 2
30.7069 31.1738 31.3658 1940 2
30.1995 26.8981 29.2779 41796 1
30.4128 29.4286 29.3782 1020 1
33.2728 29.5551 30.1348 41885 2
32.2674 28.5356 33.0813 41845 2
33.3121 30.992 32.2444 1033 1
35.4155 27.4099 31.3721 40926 2
35.3339 29.5514 32.325 41893 2
37.7767 28.4446 31.2205 2779 1
37.4104 30.9623 31.3327 2010 1
37.0292 27.4029 33.3659 1083 1
39.1868 29.9694 29.8035 1907 2
36.2236 29.6059 29.808 2000 1
39.0948 28.9842 33.4393 2831 2
37.3379 31.1155 33.5677 4713 1
40.1453 27.9229 31.1852 2836 1
42.7461 27.572 30.7679 41842 2
41.4891 30.1011 31.8672 40975 2
41.7759 29.5598 29.2679 1897 1
45.2525 27.8895 30.9537 40985 1
46.5899 30.2593 30.346 41032 2
48.1256 27.5797 31.1591 40935 2
44.4772 29.4971 32.6647 41849 2
47.6339 30.3693 32.9808 2072 2
49.2821 30.0223 30.9474 1954 1
50.59 28.2521 29.8133 42717 1
50.5927 28.6079 32.1381 2027 1
51.9028 30.5878 30.5826 1163 2
52.5699 27.8489 31.2318 40996 1
52.3055 27.2598 33.584 2026 1
52.7513 29.9126 33.3878 1164 2
54.7348 27.8638 32.6297 20144 2
54.7682 30.0675 31.0452 248 2
55.3283 27.3247 29.8228 19382 2
57.2698 29.2327 31.9034 19231 2
57.4639 28.6799 29.5333 19227 1
59.589 28.697 30.5547 246 1
60.0866 30.2246 32.4996 200 2
58.7406 30.9948 30.2607 1109 1
59.5654 27.221 32.8431 19234 2
61.5148 30.7269 30.2033 2792 2
61.9709 28.2744 31.6537 19243 1
63.9143 28.9367 30.2915 19242 2
63.6408 30.533 32.5957 20214 2
65.9823 27.1482 29.9144 18337 1
64.5223 27.7987 33.344 20151 2
68.5708 27.3679 30.66 30998 2
66.6561 28.5318 32.3325 12515 2
69.7839 27.9771 33.3087 19186 2
66.3202 29.7629 30.2616 30833 2
70.1364 29.563 31.2059 43818 1
68.265 30.6013 32.798 20158 2
69.3233 29.4679 29.2133 44057 1
74.5258 28.1025 31.479 30993 2
72.5229 30.37 31.3557 43804 1
71.5952 28.0121 30.1198 18339 2
72.2774 27.9663 32.7267 18336 1
71.1975 30.1452 33.2252 19294 1
74.8774 30.8214 31.6192 43989 1
74.249 30.2195 29.2428 39105 2
18.5119 34.9344 30.924 1017 2
21.219 33.6321 30.683 1060 2
18.5359 31.9594 31.1774 63536 2
20.0747 33.4853 33.2452 1934 2
20.5913 31.4075 29.2227 72807 1
24.2424 31.8495 32.359 63681 2
23.9124 34.5813 31.1224 43702 1
22.6999 34.0242 32.8641 1069 1
23.3381 32.0291 29.6055 72814 2
25.321 34.0538 33.4562 1983 1
26.1939 31.4292 29.5493 40917 2
26.2723 33.294 31.4362 1070 1
28.3012 32.2332 31.6056 40965 1
28.1149 34.5527 30.132 1031 2
30.0746 33.7212 31.5044 2916 1
28.8995 31.7246 29.4488 979 1
28.1211 34.3652 32.7891 1989 1
29.813 32.5278 33.4864 3749 1
30.3999 35.2361 33.645 1990 2
34.9692 34.4617 31.0433 24974 2
35.1031 31.7737 30.8517 984 1
32.7219 33.3374 29.8891 1029 2
32.6062 33.5161 32.7583 1950 2
35.2485 34.9884 33.416 3754 1
35.1644 32.361 33.1812 21059 1
38.9868 33.5859 30.441 1199 2
36.8745 33.1625 31.9921 1080 1
39.411 32.063 32.6017 41895 2
37.7525 35.5741 32.0209 20283 2
36.7726 35.4311 29.3761 41937 2
43.7637 31.4468 30.7185 43703 2
41.031 31.7817 29.9287 42701 1
41.7672 33.3828 31.7755 2004 2
42.9233 31.793 33.5287 3713 1
39.9421 35.1423 33.503 284 2
44.3594 34.6668 31.1547 2990 2
47.1579 34.4732 30.9296 2067 2
45.4058 32.3132 32.3923 43700 2
47.8129 33.1441 33.1749 2023 1
46.2206 35.0416 33.1899 1209 1
48.3238 32.1258 30.8816 2942 1
46.1921 32.6429 29.2222 197 2
49.8783 31.6094 32.7802 42715 1
50.2224 33.8366 31.4082 237 2
52.212 32.3568 32.5331 2902 1
52.4154 35.3204 32.5378 2022 2
51.731 32.8896 29.5851 291 1
48.5578 35.4937 32.8484 236 1
56.0944 34.5451 30.5807 19334 1
53.9676 33.2309 30.9619 20251 2
55.3183 34.3145 33.0275 1208 1
56.8176 32.3226 31.907 2077 2
54.6169 31.6673 33.0812 249 1
56.397 31.7788 29.4665 39077 2
58.6005 33.793 29.6492 241 2
59.3191 32.7115 31.9244 19233 1
57.7405 34.7816 32.2289 19235 1
60.4612 35.3744 31.889 2121 2
61.5337 33.3729 30.4556 1112 2
61.5731 32.8476 33.4647 20212 2
63.1711 35.397 31.4221 43165 1
64.2294 31.6978 29.9488 18380 1
63.5611 33.069 31.7919 19341 1
64.547 34.5391 29.7202 19232 2
65.8818 34.804 32.4778 20256 2
65.9853 32.0225 31.9133 19289 2
68.6016 31.2638 30.2466 20162 1
69.4419 34.5442 30.3464 19293 1
67.1388 34.714 29.8059 20215 1
68.0765 33.198 31.5318 19347 1
68.7045 34.417 33.2456 18372 1
66.6017 32.479 29.3863 19288 1
70.5995 32.2089 31.5952 19246 2
73.3747 32.3791 30.6974 19297 1
71.6244 33.9326 29.9055 18438 1
71.4531 34.5996 32.6292 19295 2
73.7885 35.3508 30.9274 43988 2
72.5771 32.1165 33.2415 19296 1
74.5718 33.4399 32.6409 19301 2
20.6507 35.8063 32.3036 63543 1
19.4623 37.4615 30.8933 63542 1
18.482 39.3165 32.3671 63318 1
20.8534 38.4965 32.9499 1979 2
19.8158 39.9481 30.6529 63529 1
18.6106 36.6802 33.6075 63540 2
22.1628 39.3775 30.4366 2045 1
22.1933 36.8349 30.38 1988 2
24.6322 38.4659 31.2557 2036 2
24.49 36.4344 29.4247 2034 1
22.9749 36.6952 33.1355 1981 2
25.9698 36.017 31.68 1075 2
22.9439 39.8264 32.5055 2039 1
29.3025 36.8828 31.7295 1074 2
29.9877 39.2494 30.3096 1028 2
27.6515 38.783 32.1501 1122 2
27.2734 37.3501 29.35 41015 2
31.04 35.771 30.254 1027 2
30.9965 38.8407 33.0129 2870 2
32.3162 38.0368 30.7508 1079 1
32.8262 36.2973 32.4953 1997 2
33.4977 39.4722 32.9207 20156 2
33.6188 36.2053 29.6389 41936 1
35.2354 37.3816 31.6642 1995 2
33.7587 39.6921 29.6643 2829 2
38.1186 37.6021 30.205 41068 2
36.9582 39.2739 32.3347 2061 2
42.2838 35.9507 32.3948 2944 1
39.7128 38.1791 32.7537 41994 2
40.3167 35.8797 31.0593 2002 1
42.43 36.0088 29.5967 41024 2
40.9655 38.3398 30.1802 40988 1
42.7602 38.1572 31.5058 2066 1
45.1107 36.8691 29.9726 1159 1
45.3514 39.0307 30.8942 41031 1
47.3315 37.2931 31.2547 330 2
44.8428 37.0709 32.8746 2995 2
46.6526 39.1857 33.0322 25017 1
44.2928 39.7829 33.0491 2111 1
51.2743 35.7276 29.4568 1155 2
49.7207 36.3186 31.1607 41035 1
51.9224 38.1717 32.0379 1162 2
49.3341 38.8085 32.7034 1213 1
50.2447 38.8321 29.9586 40108 2
53.3732 39.2739 29.9519 18473 2
55.8526 38.4561 30.2363 41085 1
55.1911 36.5875 32.2137 20297 2
54.5333 38.9893 32.2768 388 1
53.8297 36.5151 29.9907 44000 2
57.1064 38.8411 32.571 18430 2
58.4398 36.8254 30.4572 288 2
59.7247 38.2772 32.2054 18376 1
58.4131 36.7474 33.4412 19276 1
61.0126 38.9918 29.7977 18381 2
58.502 39.5967 30.088 19282 2
61.293 35.8881 29.339 1111 2
62.2072 37.7085 32.1158 19286 2
63.5813 37.1795 29.7059 1119 1
64.7328 37.328 32.4001 20213 1
64.3809 39.2061 30.8014 44031 1
63.7193 39.9175 33.3738 19378 2
68.1586 36.008 31.6884 19339 1
66.171 37.2163 30.2028 19281 2
68.4008 38.3223 31.1898 19290 1
68.5353 39.6371 33.3188 163 1
66.9029 37.8863 32.8784 20208 1
69.7677 37.0806 33.3528 19291 2
74.7736 39.7898 30.7286 18489 1
70.6159 36.7616 30.5182 19349 2
70.6755 39.1807 30.144 18383 1
71.2135 39.1644 32.7067 18437 2
72.6549 36.9447 32.5231 25899 1
74.0633 39.1456 33.1636 19352 2
73.1344 37.9632 30.5665 18386 1
18.9139 41.7025 31.963 63648 1
19.7522 42.3416 30.0634 63678 1
20.471 43.7707 32.2171 63528 2
21.3384 41.3428 31.5134 21093 1
21.2156 44.1475 29.2953 48570 2
23.6448 41.6702 30.2041 41066 2
23.0523 43.3476 32.253 63091 2
25.2956 41.1764 32.4585 2037 2
25.6631 43.416 31.499 2969 1
26.3291 40.1143 29.8935 41016 2
28.0802 41.5361 31.1108 43701 2
28.3645 43.849 29.7803 42710 1
29.8635 41.415 32.8799 25055 2
28.1715 44.2176 32.29 2971 2
30.7544 43.4441 31.2362 2090 2
30.2643 41.8004 29.2127 41883 2
33.2099 42.2682 29.5805 1998 2
31.8786 40.6617 31.3184 41941 1
32.5961 42.2599 32.9652 1994 1
34.6476 41.1194 31.8561 2053 2
35.2711 43.2248 33.0061 41940 1
36.8999 40.1542 29.8307 41072 2
37.0567 42.1439 31.5384 1202 1
35.7661 42.4855 29.4401 2056 1
39.0325 43.5218 30.5387 3133 2
39.0973 41.6501 33.1598 2926 2
37.4739 44.2705 33.2781 2153 2
39.4829 40.505 30.6219 41984 2
41.7649 40.4744 32.3847 3037 2
41.822 41.5413 29.8092 1200 1
41.1749 43.1433 31.7892 1198 2
43.8424 43.2691 30.009 1251 2
43.6489 42.3661 33.2101 2112 2
43.6675 40.6829 30.8351 25047 1
46.7548 43.1026 30.1271 1254 2
45.8899 41.6164 32.0942 25018 2
47.884 40.1635 30.9698 2119 2
45.6249 40.7821 29.307 25049 1
47.5697 44.2822 32.4796 1253 2
48.4076 41.5296 33.5738 1206 2
51.0188 41.2539 29.8969 290 1
49.2426 42.6914 30.8329 2113 1
51.658 43.8443 31.1674 289 2
50.7121 41.3041 32.4049 2074 2
50.1738 43.9884 33.715 2163 2
53.1872 43.3417 33.6765 2116 2
53.221 41.4133 31.7025 20299 1
55.7588 41.0915 30.3168 18427 2
54.4966 43.3114 31.0475 39218 1
55.6641 41.6967 33.1642 2167 2
55.4277 44.3207 32.8908 24949 1
53.3182 42.0413 29.4577 1167 1
52.9993 40.3236 33.6718 20296 1
57.4321 43.5657 30.9485 19337 2
57.8433 41.1829 32.1111 18378 1
60.4711 40.7546 32.4575 20206 2
59.6866 41.8622 30.2932 1255 1
59.9347 43.7248 31.8739 25046 1
61.9734 43.1321 33.5154 20298 2
62.6304 40.6631 31.2028 18379 1
62.0678 42.9231 31.0412 18479 1
64.5943 42.3923 32.3019 19338 2
64.2778 41.9207 29.4952 19387 2
66.6284 40.1819 31.4867 18433 2
66.8145 42.9649 31.0055 19384 1
69.4578 41.251 31.1875 18439 2
67.7237 42.45 33.3892 20305 2
68.793 43.3553 29.2586 18436 2
70.3943 43.2923 32.3111 19389 1
72.5795 40.3897 30.7543 18443 1
74.555 42.0897 32.5811 20361 2
72.0534 41.566 32.6357 20353 1
72.0887 42.8994 30.3181 19401 2
74.5207 41.7611 29.2184 19351 2
18.2846 44.6026 30.6045 63282 2
18.6946 47.2028 31.8412 63280 1
21.0923 46.6906 30.9397 53468 2
19.8876 45.989 33.357 48662 1
23.6183 44.8979 30.0951 63650 2
23.8219 47.2314 31.2689 2088 1
25.493 45.8072 32.9464 2044 2
22.5884 45.8952 33.0834 63083 2
24.1307 48.5559 33.553 2963 2
26.4954 45.9375 30.2854 41064 2
29.1226 46.038 30.2628 2049 1
28.0472 47.2066 31.9798 1131 1
28.6202 48.468 30.2368 41062 1
30.0592 45.9388 32.2527 2046 1
33.6192 44.3532 31.4315 2051 2
31.072 48.0043 31.1718 41946 2
31.7838 45.4994 29.7325 2157 2
34.078 47.583 31.7243 2095 2
32.1701 46.1292 32.6405 2979 1
34.3149 46.6375 29.2068 40152 1
36.1797 44.7901 30.6785 41939 2
38.9564 46.7247 29.9237 41124 2
36.3195 47.3992 30.4658 41990 1
37.7358 47.0611 32.5575 2159 2
35.2979 45.7406 33.5055 3952 1
39.6061 45.203 32.3495 2156 1
41.3183 45.5469 30.6286 1249 1
40.6497 47.2732 32.2501 1292 1
43.4722 45.8973 31.2875 2162 1
42.1505 48.0719 30.2898 1293 2
43.1303 48.1848 32.989 25009 2
42.1321 45.3348 33.5773 3038 2
44.864 47.6846 29.7187 2169 2
45.8316 45.2925 30.4531 381 1
45.4351 47.1083 32.2861 21219 1
47.5911 47.0247 31.3887 385 1
44.8205 44.4835 32.8619 19458 2
49.8783 47.9978 29.6623 1305 2
48.9924 45.1498 30.1773 340 2
51.8594 48.3105 31.3161 1345 1
50.2818 46.2567 32.3605 2208 2
49.6583 48.6797 32.8508 2248 2
51.283 45.8854 29.2663 2120 1
52.9702 45.9089 31.9503 25040 2
55.4757 45.9565 30.8121 1306 2
56.6578 48.0518 32.3113 21280 2
54.2038 48.0243 33.1867 3089 1
53.3467 44.4889 29.3623 1307 1
53.3645 47.1924 29.449 1298 2
57.4251 45.2132 33.0941 1262 1
58.7714 46.2442 31.1418 1303 2
60.5378 47.6954 33.1149 19429 2
61.743 45.5965 31.4438 20338 2
61.1715 48.62 30.7326 2172 2
64.0297 44.474 31.268 18435 1
63.0262 48.1702 32.6756 259 1
63.6812 46.0274 32.9519 20304 1
64.3078 47.1038 30.5746 19386 2
65.6255 48.1106 32.6073 25875 1
66.0101 45.0043 32.9767 21284 2
66.2007 45.0593 29.8584 21192 2
68.4004 44.5442 31.7673 19396 1
68.0804 47.083 31.9871 19439 2
66.5697 47.6139 29.4451 19434 1
68.8809 46.0691 29.3289 43902 2
73.3528 44.4112 31.775 2141 1
70.9731 45.7406 31.2729 19436 2
73.056 45.6415 29.7293 18542 1
73.9297 47.0331 31.854 20313 2
71.3784 48.5198 31.8391 2268 2
20.6082 49.1031 32.2608 48858 2
17.9434 50.601 32.9462 63275 2
18.5953 49.4829 30.4043 63274 2
19.9811 52.2572 31.9642 63060 2
17.6478 52.0782 30.42 54461 1
22.1663 51.4374 30.6296 63486 1
26.2627 48.8706 31.1903 63281 2
22.1084 50.784 33.282 63234 2
23.1439 49.3389 31.2278 63527 1
24.7312 51.2492 32.1044 63483 2
26.0816 52.8074 30.5346 2084 2
26.5723 50.2049 33.4133 2091 1
28.0494 50.9516 31.1859 24951 2
30.1438 52.8193 31.0098 2040 1
30.6608 50.6617 31.8405 40237 1
29.2156 49.1128 33.1222 2978 2
28.8535 52.2397 33.4806 2973 2
26.4716 52.9335 33.7164 3009 2
28.5605 52.806 29.2875 50477 1
30.2652 50.3301 29.3138 41110 2
32.6203 49.911 30.6493 41115 1
34.5473 50.4485 32.1378 41120 1
32.6473 52.5746 30.8815 2048 2
34.9896 49.4403 29.4469 41077 2
32.5203 49.7417 33.4583 3028 2
31.4456 52.6289 33.7332 41114 2
34.1785 52.5761 33.4105 3083 2
37.7166 49.1124 29.4233 2155 1
38.6758 51.4871 29.5248 378 2
36.6636 49.3703 31.5954 63642 1
37.9807 51.9561 32.6738 2199 2
36.0337 52.0086 30.7483 41170 2
39.6462 49.2961 31.3479 1294 2
38.0051 49.5154 33.7218 2197 1
40.5796 51.8023 32.088 1336 1
42.1338 50.718 30.1701 2200 2
43.0708 51.1353 33.1647 2242 2
43.8891 52.8252 30.6 383 2
47.1473 48.9068 32.7923 2214 1
47.4766 49.4396 29.9161 41079 2
45.0201 49.8527 31.7835 1295 2
46.2958 51.8543 30.9379 394 1
48.0196 51.3541 32.7192 25836 2
45.5352 53.0463 33.1476 1389 2
48.7491 52.6613 29.6927 3092 2
50.2143 50.5026 31.0379 2213 2
51.176 52.874 31.931 4065 2
52.2071 48.8888 33.6222 1302 1
52.6046 50.5795 31.9684 1301 1
54.6817 49.299 30.7536 19428 2
53.681 52.1022 30.2214 25885 2
56.6044 51.0348 31.6332 25890 2
56.0553 52.7494 29.5605 19473 1
54.2707 52.7989 32.8946 20340 2
58.5103 48.9416 30.4846 19470 1
59.6634 51.0711 30.973 3150 1
58.9075 49.6286 32.7157 1310 1
58.9242 52.2797 33.3101 20437 2
58.2283 52.8712 30.4779 1267 1
61.6051 50.6418 32.9315 20342 2
62.4107 51.6577 30.1637 19483 2
64.2384 50.1119 31.2543 18534 2
66.0083 51.8806 30.8568 20397 1
63.649 52.8472 32.3182 20392 2
66.8644 49.3697 31.1145 25042 1
69.277 48.9924 30.1187 18476 2
68.6791 51.4877 30.7264 19482 2
69.0691 49.6588 32.5368 1224 1
66.7113 50.8732 33.1509 20351 2
71.3572 50.8603 29.7409 20352 1
73.9256 50.8342 30.7491 19532 2
71.2748 51.5319 32.2307 20394 2
73.8455 51.6589 33.1063 19485 1
72.4684 53.0639 30.2162 20402 1
73.261 48.7312 29.6328 19445 2
18.8896 54.6671 30.5165 63500 2
21.2553 54.2447 29.558 63481 2
19.5599 55.1953 33.4092 63223 2
20.649 57.0069 31.1392 48680 2
21.8285 54.7994 32.0597 63046 1
17.7079 56.3572 32.0375 50587 1
21.1455 57.4835 33.7091 54504 1
23.1307 53.1591 33.2064 24948 1
22.8666 56.8507 32.222 63485 1
23.2844 53.3058 30.9433 63235 1
23.2614 56.099 29.6329 63634 2
24.6978 55.0452 32.5815 63188 2
25.6775 56.0833 30.3433 63479 2
27.8327 54.6011 31.9622 2089 2
27.9717 57.0849 31.0431 3022 1
29.6005 55.3137 29.7482 40191 2
30.3511 55.2116 32.3489 40239 2
27.3422 56.1226 33.5812 2195 2
32.5271 55.535 30.1476 42703 2
34.6806 54.1944 31.1408 41977 1
34.8312 56.5149 32.3862 428 2
32.7464 54.7104 32.6495 2980 1
34.8304 56.2296 29.1945 41126 2
36.6866 55.4807 30.6183 477 1
38.2512 56.2829 32.6777 3191 2
38.3502 53.8849 30.8579 19545 1
39.1941 56.1238 29.5549 1343 2
36.4571 54.3479 33.044 376 2
40.8669 53.5976 30.3249 1339 2
39.8675 53.9698 32.8367 2201 1
40.6981 55.7945 31.4995 481 1
43.1082 55.2021 30.662 1386 1
42.5496 54.108 32.9254 1388 2
42.627 56.9934 32.7674 2289 2
42.0466 57.4123 29.8676 435 2
47.6253 55.9941 29.4355 1348 2
45.9783 54.3986 30.7833 2240 1
44.8154 55.4993 32.4391 1347 1
46.9471 56.5672 31.7744 1393 1
44.814 57.3189 30.3556 1390 2
48.237 54.2592 32.1982 1297 2
50.1884 54.9538 30.781 19565 1
49.5999 57.2418 31.6834 20463 2
51.6074 56.7862 29.8242 1399 1
52.6149 55.6137 32.1577 1397 2
52.4559 54.4971 30.0398 1352 1
50.3681 55.4946 33.4935 2292 1
54.3203 56.5498 29.5808 20435 2
54.696 54.3618 31.0038 19469 1
54.9875 56.909 32.0032 19657 1
56.9854 54.3449 32.2745 25867 2
56.6889 55.0198 29.6723 19517 1
57.3246 57.178 31.3326 448 2
60.7404 53.2158 31.562 19379 1
59.5863 55.1821 30.6861 25887 2
59.0567 55.3446 33.7319 20426 2
61.7685 57.2573 30.7635 25865 1
61.9952 55.4595 32.6646 19430 2
62.6483 54.5222 29.9116 19476 2
64.3454 56.842 30.3938 19570 2
64.6533 55.6497 32.826 19478 2
65.6284 54.3554 30.3699 19486 2
66.3492 53.5555 32.7345 20343 1
68.8597 53.1769 33.0183 20391 2
67.1519 56.4981 30.4201 19585 1
68.261 54.305 30.7952 19523 1
67.324 55.6184 32.5336 20445 1
69.5489 56.4124 29.1882 19586 2
69.5248 55.6203 33.7308 25888 1
70.7351 54.8478 31.4003 19524 2
73.7091 55.6621 30.4053 20444 2
74.4241 55.6895 32.9152 20446 1
72.9144 53.7145 32.4442 20447 1
72.101 56.3301 33.2868 19588 2
17.9249 58.2595 30.4093 63187 2
18.9483 60.436 31.1494 63040 1
19.182 58.7197 32.8982 63185 1
21.4568 59.8045 31.8217 63183 2
20.4163 59.3259 29.5335 63438 1
19.3812 61.2133 33.5978 55451 2
23.6211 58.8469 30.7166 63433 2
25.5498 58.1755 32.5788 53648 2
25.7197 60.8672 31.3849 63042 1
23.9527 60.6606 32.9208 63186 1
26.1737 58.6262 30.1776 63410 1
23.2079 58.4807 33.6463 63225 1
27.942 59.6874 31.7267 63272 2
29.9373 60.6729 30.163 53557 1
30.1467 58.1063 30.2073 25023 2
29.554 57.9833 33.3552 3023 2
30.7896 60.4436 32.2647 3012 1
32.1168 57.8161 32.0241 2982 2
34.3626 58.7446 31.5435 24941 1
32.6401 60.3043 30.2738 1382 2
35.0366 58.973 29.4043 41118 1
32.8895 58.105 29.1955 41981 1
35.6149 61.0258 31.2542 24999 2
37.0463 58.0637 30.8688 1338 2
38.356 60.8808 31.4775 24937 2
36.9432 61.5292 33.5933 2330 1
36.9984 58.8269 33.5376 1385 2
38.8809 58.8426 29.3507 41125 1
40.0428 58.4787 31.6916 429 2
43.1236 59.2428 31.4445 1387 1
41.1404 60.0552 29.7492 479 2
41.1784 60.7569 32.2891 19607 1
43.5164 60.6066 33.6617 1441 2
45.5529 60.4293 31.2416 1445 2
47.5732 58.7842 32.4187 2294 1
47.5249 58.9586 29.9159 1447 2
45.2306 58.0307 33.2009 20511 2
48.1686 60.8752 31.579 1444 1
46.5482 61.1188 33.3201 2337 1
52.2763 60.9613 29.8123 2342 1
50.2454 59.5611 30.0282 19569 2
50.9748 61.4027 31.8847 25035 1
50.029 59.5757 33.3656 3201 2
52.2852 58.6695 31.6507 1398 2
53.4274 61.0049 31.8313 24996 1
54.9833 59.1898 30.6584 20473 2
55.8232 61.326 31.8169 25862 1
55.1236 59.1189 33.5215 20470 2
59.9855 57.5942 32.5638 444 2
58.0736 60.3073 30.4421 19618 2
60.4412 59.9498 31.3005 20476 1
57.9076 59.7943 32.7743 20477 2
59.7425 58.0633 29.4476 19575 2
60.6418 59.932 33.6635 20480 1
62.5336 59.4657 30.4833 19572 1
64.7332 60.3373 31.7936 19520 1
62.4921 61.5093 32.2515 19623 2
63.034 58.4121 32.8184 20428 2
64.9355 59.135 29.6673 19574 2
66.1619 58.3189 32.3354 19578 2
69.3522 57.5907 31.9883 19626 2
67.8185 59.0275 30.317 1420 2
69.5026 60.7311 31.3055 20487 2
67.19 60.6404 32.5841 20483 1
66.5243 61.5804 30.2716 546 2
71.765 57.5834 31.0034 20488 1
74.3537 61.18 32.48 20497 2
72.5899 59.9585 30.0655 20485 2
74.1704 58.1419 31.7394 20489 2
71.6934 59.2231 33.0345 20537 2
20.4513 62.4568 30.3566 63425 2
20.3708 65.3135 30.5093 54635 2
19.7033 64.2253 32.8021 63146 2
21.776 62.374 32.6284 63233 1
18.6341 63.8557 29.2915 53783 1
17.6592 65.5014 30.8519 55588 1
17.6459 62.8037 31.5865 55544 2
23.542 62.0192 30.5548 54632 2
25.1769 64.3453 30.8793 63028 2
22.4167 64.4014 31.5933 48872 1
24.1994 63.3084 33.5115 63036 2
26.4156 65.1121 33.4145 63024 1
24.0746 66.1632 32.5415 55685 1
28.9883 61.8803 32.0539 48774 1
26.9339 63.1152 32.314 63043 1
27.4763 62.4995 29.8883 63227 2
28.8504 64.7465 32.0788 63176 2
27.7223 65.1382 29.5306 5799 2
30.8502 65.5033 29.6245 5309 2
30.83 62.9513 30.4372 24954 2
30.7953 63.0047 33.3646 22153 2
32.9847 62.3325 32.6803 3025 2
33.8529 63.6119 30.3195 19499 2
32.056 65.0574 32.0088 2284 1
33.2995 66.141 30.2392 24853 1
34.3161 64.8071 33.1157 3948 1
35.7328 63.1547 32.4668 20458 1
36.9659 63.3263 29.881 2288 2
39.5211 64.7626 30.0652 2328 2
36.1281 65.4567 31.468 3184 2
38.3711 63.602 32.5569 1384 2
40.4555 62.7494 31.3419 2286 1
43.2852 62.0348 30.8902 1439 2
40.7517 65.1503 32.7165 2331 1
42.1047 64.8149 31.0622 572 1
43.1604 63.9664 33.1141 18756 1
41.6725 63.4923 29.3719 25906 1
47.1097 61.8713 29.3011 1395 1
48.1632 65.3101 29.4881 528 2
44.9752 62.6431 32.7531 1438 1
44.7887 64.0678 30.4492 1442 2
47.1407 63.3217 31.5374 1443 2
45.4136 65.0291 32.6281 19652 1
47.8394 66.1899 32.3362 19614 2
49.6168 63.819 32.156 25036 1
52.3205 63.4473 31.3065 19617 2
50.3885 65.7425 30.5149 1446 2
49.7213 62.671 30.0008 19660 2
51.2687 65.9424 32.8212 2388 2
54.4364 61.8666 29.9139 18770 1
54.9563 63.8435 31.2417 19665 1
56.5075 65.6596 32.4033 2430 2
53.8074 65.2962 33.2817 1490 1
56.777 62.961 33.1588 20518 1
56.0928 65.8153 29.1875 583 2
53.5498 66.0444 30.6252 2381 2
54.2819 62.7837 33.5817 1489 2
57.351 62.9706 30.5864 20521 2
59.2088 62.0373 33.28 20525 2
61.1741 65.7929 30.6968 19670 2
58.7238 64.7405 31.6464 20522 1
60.2607 62.6281 30.74 18729 2
61.0796 64.7876 33.152 20566 2
63.4746 61.933 29.6908 19580 2
65.4368 62.7436 32.556 20528 2
62.9351 63.7926 31.5259 25860 1
65.163 63.9909 30.4503 19625 1
64.1655 66.0909 31.2584 19624 1
64.232 65.1381 33.5887 20575 2
67.8724 63.8526 30.0325 602 1
68.1118 63.0586 32.4004 20533 1
70.3904 63.5462 30.6943 20527 2
69.1754 65.1166 32.5444 25854 1
66.8336 65.7109 31.591 21433 2
69.7368 66.2383 29.8444 18736 2
71.8978 61.865 32.0238 21396 1
73.5636 62.997 30.2065 19679 2
72.4109 65.6385 31.2005 21693 2
71.193 63.856 33.1055 19639 1
73.7079 63.6617 33.2676 22549 2
19.2877 67.8213 30.4948 54678 1
21.5479 68.0693 30.0402 63142 1
21.0065 67.1769 32.6169 63177 2
18.3667 66.9129 32.4227 50692 1
20.1383 70.1145 31.6391 54810 2
17.6588 69.3049 31.7591 55780 1
23.0563 66.3873 30.4693 63141 1
23.0987 68.9751 32.2423 54677 2
25.1156 67.63 31.0372 63140 1
25.868 69.7356 32.1113 63124 1
22.2786 70.3582 30.0259 63128 1
26.3304 70.3103 29.6775 63125 2
27.3238 67.0685 32.1667 63144 2
29.1794 67.325 30.0656 1383 1
28.7772 69.6014 31.5899 63139 2
26.8443 67.9692 29.5788 55682 1
30.5095 66.9612 32.4548 63037 2
31.1235 69.497 33.3055 63039 2
31.7484 68.3202 30.1245 63014 2
34.3192 68.2629 30.0788 48819 1
33.7323 70.0982 32.0578 4408 2
33.6621 67.1077 32.4137 5806 2
38.5753 66.5511 32.3955 2332 1
36.4493 68.4588 31.6011 2373 2
39.0672 68.9313 31.8376 2419 1
37.7937 66.8142 29.8337 4413 2
37.6027 70.4932 30.3227 3597 1
40.9028 67.2704 30.8784 1482 2
43.5302 67.9625 30.7519 579 1
43.1624 66.554 32.7663 2420 2
42.0125 69.1539 32.5389 1485 1
41.0527 70.3691 30.4488 2374 2
43.651 70.2039 30.3486 530 1
45.7959 66.8098 30.2254 578 2
48.4231 67.9937 30.5673 1528 1
44.3546 69.7523 32.8223 1483 2
47.4766 69.151 32.76 3294 2
45.5204 67.4585 32.7544 25034 1
45.985 69.2089 30.5858 3300 1
47.9243 70.2585 30.2415 1535 1
50.6897 68.3418 29.5912 1488 2
50.0013 68.0669 32.3104 2338 1
52.2769 68.1317 31.6324 2427 1
52.3774 70.1682 30.4673 2431 1
54.5336 70.0225 32.0018 1533 2
55.8646 67.895 30.7774 2425 1
54.4198 67.6419 32.7362 2384 1
56.9206 68.2718 33.2728 2439 2
53.8129 68.0592 29.3209 19710 2
57.4909 70.0222 30.1895 19667 2
60.6808 69.5027 30.1609 19718 2
60.6781 68.3586 32.4949 20569 1
58.6369 67.3409 30.6477 25882 2
58.7873 70.0714 32.2971 25855 1
59.0144 66.8233 33.0568 20474 1
62.5463 66.9089 32.7262 20571 1
63.354 69.8469 29.6587 21779 1
65.2802 68.5178 31.1778 20529 2
62.9103 69.1165 31.8884 21735 1
62.9205 67.4676 29.4566 18779 2
65.5337 66.4479 29.2854 2354 1
70.3583 66.3041 32.9614 23502 2
68.1967 67.921 31.4641 22589 2
69.3503 70.0897 30.9377 21740 1
67.4176 69.7223 33.2286 25787 2
70.799 68.4211 31.2171 25816 1
73.9087 69.2086 30.2643 2592 2
74.8821 68.7989 32.8563 21748 1
72.7583 67.8684 32.2258 25853 1
72.0456 67.5596 29.427 2396 1
72.4496 70.4432 32.3407 22642 2
74.7769 66.3291 33.0876 22592 2
19.6172 73.5518 32.9429 54859 2
20.7213 72.4741 30.3293 54023 2
18.1179 70.9322 29.7585 63105 1
18.5661 73.5731 29.9735 63363 2
17.7866 71.7022 32.1138 63016 1
22.2597 72.026 32.7841 62901 2
25.9334 73.9225 30.808 63005 2
24.4 71.6573 30.9949 63118 2
25.5489 72.0829 33.1708 63010 1
24.4425 74.2868 33.1626 4505 2
23.3805 74.164 29.5089 63369 2
22.18 74.8369 31.9056 63116 2
28.5226 74.8738 31.2935 22518 2
27.5377 71.9672 31.6208 48908 1
29.5114 71.7014 32.961 4507 1
29.8763 72.7223 30.5719 3587 2
27.6474 73.6681 33.5945 3586 2
27.5203 72.581 29.2595 3538 1
32.9019 74.8693 33.7343 3550 1
31.7843 74.6988 31.4455 3594 2
31.3082 70.6823 31.0406 4458 1
34.1871 74.5677 29.9958 3590 1
34.6806 73.6224 32.3875 3599 2
33.0908 72.3844 30.6331 4512 1
31.9952 72.3946 33.1464 3543 2
35.2051 71.2093 30.3283 21775 1
36.404 71.1508 32.3822 3598 1
36.8474 73.3803 30.6003 3602 2
39.1441 71.8439 32.2247 4520 2
39.0027 72.2333 29.17 22511 2
43.3995 72.8707 30.1972 577 2
42.3161 71.9536 32.2921 1532 2
40.4634 73.6542 30.7262 19699 1
45.82 72.0845 31.5991 1487 2
48.1361 72.3232 32.6105 2424 2
46.1753 74.2238 30.0326 37850 1
46.0227 74.5546 32.3024 21842 1
48.5006 72.7536 29.3947 633 2
50.0694 70.7701 31.7868 2426 2
50.4299 73.5906 31.2123 21736 1
52.3427 71.9242 31.9368 22630 1
52.5594 74.2652 32.0875 22632 1
54.2457 72.8929 30.9726 21526 1
56.698 72.2586 31.8005 21476 2
56.0275 73.9196 30.0039 12850 1
55.4193 74.3784 32.2585 21729 1
60.9754 74.9862 29.866 21788 2
59.731 72.276 30.8984 20619 2
61.1048 73.8937 32.6381 21730 2
61.2977 70.9408 33.2112 20570 2
58.6178 74.6126 32.1711 20618 2
58.2487 74.8325 29.7399 25814 1
59.0455 72.1767 33.6111 20616 1
62.4807 71.4946 31.1442 25856 1
65.1594 71.1685 31.6036 20824 2
63.7402 73.7802 31.0735 22588 2
63.2656 72.5824 33.3328 25778 1
63.7769 74.9088 33.3091 23542 1
68.7178 74.6676 31.8251 21787 2
67.6601 71.5241 31.4961 19669 1
66.8248 72.3343 33.639 22638 2
66.4539 73.6766 30.4236 21781 2
69.9195 71.8747 32.6589 21737 2
69.3083 72.6556 29.7109 22688 2
70.5563 74.9224 29.7986 20880 2
71.2771 70.8989 30.168 18741 1
71.9879 72.8825 31.0577 21785 1
71.3112 74.2067 32.7146 25817 1