ITEM: TIMESTEP    
170000     
ITEM: NUMBER OF ATOMS  
77888     
ITEM: BOX BOUNDS pp pp pp
17.607 132.393    
18.0782 131.922    
27.4407 122.559    
ITEM: ATOMS x y z id type
19.5053 20.5152 28.0448 72779 2
19.2894 19.0475 30.5193 1881 2
19.307 21.6921 31.2289 1887 1
21.8543 19.0885 30.1687 1839 2
21.303 22.1155 29.1831 977 2
25.2005 19.9783 31.0699 22628 1
24.297 20.048 29.0144 926 1
23.0571 21.2684 31.0141 1848 1
74.9052 67.1271 31.3393 22592 2
30.0896 19.5568 30.0701 20062 2
27.0339 20.8996 29.2615 1846 2
29.54 22.185 29.0556 1895 1
27.9714 18.4546 28.5043 72824 1
74.5023 75.1065 66.1448 28987 1
29.2858 22.3833 31.6049 1944 2
17.8125 71.471 66.06 10795 2
33.0557 20.0618 29.7952 43709 1
33.9687 21.819 27.9388 19151 1
31.9673 21.1476 31.6758 25026 1
33.9649 18.7514 27.7661 24988 2
39.6632 23.5527 27.4076 2790 1
35.8404 20.2385 29.414 1851 2
39.1318 20.9716 29.2022 22537 2
37.0282 21.7725 31.3044 1899 2
38.7674 69.8753 27.455 4204 2
17.6359 43.8441 69.1947 13042 2
19.9468 51.7822 27.3219 63632 2
40.7784 19.4463 30.5443 1854 2
43.6806 18.7451 31.488 23128 2
41.3695 19.9019 27.9397 43666 1
43.1043 20.8141 29.6474 21871 1
42.5147 21.4961 31.6535 3665 1
31.6847 74.8926 64.622 10805 1
45.0092 19.2537 28.4641 1099 2
47.5484 20.9919 29.1541 40834 2
46.8304 18.8002 31.0053 22576 2
48.0314 21.8846 31.7804 1908 1
45.4039 21.2728 31.5271 4627 2
45.0702 22.6629 29.0431 43705 2
50.2967 19.3948 28.5572 38521 2
49.9769 21.8305 28.213 40893 1
49.7252 19.9777 31.2706 22529 2
52.8122 21.2653 28.6969 38365 2
50.9885 22.2636 30.9085 1110 2
52.7982 20.3978 31.3591 22574 1
55.6206 19.1529 28.3472 21944 1
54.8552 20.2968 30.1992 12513 1
55.3538 21.795 27.9133 39988 2
56.5679 22.1699 30.4903 13500 1
25.9041 18.2815 29.3898 23170 1
17.8593 36.4269 42.5529 62876 2
60.1145 22.0208 28.2055 31298 2
60.4536 18.9027 30.5497 19184 2
59.5652 22.1223 31.0469 31285 2
60.1872 19.4489 28.1206 31004 1
57.8928 20.2372 28.9882 38509 2
64.5467 21.3225 30.25 21892 2
62.11 20.5053 29.2776 31021 1
64.2601 19.3267 28.2768 30371 1
63.6815 18.5215 30.7339 30999 2
62.7678 22.7162 27.5381 30803 1
74.762 57.7937 46.4463 24072 1
53.0861 18.1881 29.2069 2787 2
66.7383 19.1266 29.0512 31023 2
69.3164 21.5007 31.5016 19245 2
67.4241 21.6266 29.6213 31293 1
69.442 19.922 28.1002 30997 1
69.7823 19.0313 30.4441 38366 1
66.6592 20.2611 31.5664 20998 1
69.877 22.5388 28.5298 31019 2
74.3028 20.1327 29.1771 31289 2
71.6201 21.0794 29.8804 30996 2
73.9032 22.3254 31.2012 12413 2
72.7616 18.8117 30.8793 21403 2
71.6108 18.492 28.2884 30343 2
18.3183 23.0253 29.2193 1928 2
20.4451 24.8948 29.9052 1885 2
20.8027 26.816 28.1935 970 1
17.9487 25.506 27.5961 72780 2
24.5997 22.7793 29.5697 25024 2
22.9383 24.4323 28.2193 25062 1
22.9569 24.6563 31.049 1888 1
25.5945 24.9131 30.5955 1945 1
25.2297 26.2677 28.49 25061 2
22.8233 26.4502 29.2603 52493 1
24.1719 26.7395 31.3866 63545 1
26.5306 22.7882 31.288 1884 1
27.5805 24.045 29.0944 1943 2
30.6067 24.5716 30.5323 40920 2
28.5259 18.2444 54.47 6454 2
28.4922 26.6767 29.298 39954 2
32.0185 22.4891 29.7281 989 2
33.6009 25.6904 31.2098 1035 2
33.573 24.6479 28.0129 1999 2
34.9566 23.2125 30.0655 25027 2
32.0292 26.5272 29.1264 43811 2
35.8658 25.2589 28.5463 40922 1
36.9053 25.1351 31.06 2729 2
36.9052 22.8701 28.1219 40928 2
38.3654 25.5368 28.0938 43667 2
39.2137 23.773 30.3134 3770 2
39.5762 26.8242 30.6961 1958 2
41.7015 22.8424 29.38 40934 2
40.9353 25.4595 28.6913 1956 1
41.7516 25.293 30.8948 2782 1
43.3449 24.8045 28.869 41801 1
43.6023 23.5971 31.286 22532 1
74.712 67.5712 52.2929 8027 2
46.3185 25.3369 28.6421 40939 2
47.6603 25.5852 31.189 1153 1
44.5946 26.2153 30.6409 2837 2
46.2387 23.8517 31.2896 21900 1
48.8509 23.7535 29.6757 40989 2
51.8139 23.8791 28.4944 19180 2
50.3848 26.2055 30.0881 2020 2
52.285 26.1613 27.5597 1165 2
53.999 23.0762 30.8192 23176 2
53.2861 25.7378 30.2975 23642 1
54.7668 24.5046 28.3205 40025 2
55.6272 25.344 30.8564 40030 1
57.7747 23.6565 28.6456 38629 2
57.5138 24.1837 31.2423 23172 1
57.5998 26.4894 29.666 18330 2
59.6809 24.737 30.2789 20148 1
61.1055 25.0694 28.2354 199 2
62.2564 23.116 30.2765 19285 2
64.0323 24.8067 32.032 20106 2
64.7229 23.8864 29.5759 18327 1
63.1963 26.3724 29.6525 19229 2
65.5822 27.2115 28.0929 18337 1
68.9763 24.6167 30.7029 1065 2
65.9086 25.774 30.1846 19241 1
67.1842 23.9799 28.3484 31294 2
70.2965 25.2312 27.8261 44061 2
66.6257 23.1766 31.4413 31002 2
73.2805 25.394 28.3913 44079 1
71.894 23.7524 29.6738 12457 1
71.3963 25.8763 30.3965 30290 1
73.7596 24.8763 30.6589 43162 1
74.7254 22.9698 28.5125 39972 2
18.9648 26.9245 29.5377 63548 1
19.4146 29.1666 28.324 1933 2
21.7863 30.7928 30.0749 1071 2
18.7607 29.4124 30.8717 1936 2
21.3722 27.8008 31.02 63546 2
22.1756 29.0559 27.882 975 2
24.1577 28.9779 29.3924 1023 2
26.6352 27.4254 31.3376 1025 2
26.4981 30.9835 28.175 40917 2
74.8331 25.3726 70.3835 28710 2
26.4927 29.9037 30.7295 40916 1
26.5689 28.416 28.4879 986 1
28.5196 29.8446 29.3653 19240 1
30.3079 28.3242 29.8163 983 1
29.7868 26.9907 31.624 1949 1
19.832 18.1211 62.8822 62511 2
33.0285 29.1748 28.7973 41885 2
32.2193 28.3832 31.5554 41845 2
33.4546 30.6206 31.2548 1033 1
34.9214 27.422 29.8117 40926 2
35.642 30.3266 30.0545 41893 2
37.2852 27.8726 29.0034 2779 1
38.1591 30.0854 30.4774 2010 1
37.1434 27.9738 31.4045 1083 1
38.7302 30.155 28.1227 1907 2
35.9347 29.4221 27.7294 2000 1
39.6585 27.872 28.3014 2836 1
42.4265 27.5217 28.9854 41842 2
43.154 30.301 29.8939 43703 2
40.6982 29.708 30.0444 40975 2
18.6881 36.4822 27.3788 74330 1
44.9463 28.2012 28.9922 40985 1
46.4215 30.3634 29.0943 41032 2
47.7806 27.5798 29.673 40935 2
44.9233 29.2406 31.4522 41849 2
49.1917 29.8032 29.4788 1954 1
50.5391 28.1639 28.4344 42717 1
50.7526 28.8891 30.8368 2027 1
51.964 30.6561 29.0202 1163 2
52.5919 27.9571 29.6218 40996 1
55.0733 27.8686 31.2272 20144 2
54.8485 30.1221 29.4201 248 2
54.9732 27.3829 28.3541 19382 2
37.8559 18.3638 30.46 22536 2
60.3051 27.0361 29.47 246 1
57.9186 29.2417 29.355 19231 2
60.9193 29.2276 28.2024 2792 2
60.2012 30.6363 30.9026 200 2
59.1944 27.79 31.7213 19234 2
61.8692 28.4986 30.4768 19243 1
64.2327 29.341 28.91 19242 2
63.4905 30.6523 31.0261 20214 2
66.3011 28.4474 30.8517 12515 2
67.9188 26.9078 28.8046 30998 2
69.3159 27.8515 30.799 19186 2
67.3225 29.928 28.6196 30833 2
70.044 30.0433 29.4015 43818 1
68.6423 30.7449 31.5076 20158 2
74.077 27.5524 30.2224 30993 2
72.5331 29.837 29.8165 43804 1
71.543 27.7733 28.5331 18339 2
71.862 28.0065 31.5031 18336 1
74.4164 29.9907 27.8928 39105 2
71.2536 30.2205 31.7021 19294 1
18.641 34.9258 29.5952 1017 2
21.2838 33.421 29.2347 1060 2
18.3799 31.7636 29.6328 63536 2
20.4973 31.4926 27.6483 72807 1
17.8852 65.2448 39.3384 62909 1
24.0645 31.4609 31.0272 63681 2
23.9797 34.1832 29.3604 43702 1
22.7577 33.8998 31.4283 1069 1
23.6415 31.9337 28.0705 72814 2
26.0116 33.0414 29.9954 1070 1
25.0254 33.8994 32.0537 1983 1
28.1764 32.0841 30.0206 40965 1
28.2502 34.3047 28.7155 1031 2
30.0272 33.5766 30.8538 2916 1
29.3855 31.7741 27.9727 979 1
27.8422 34.3242 31.3738 1989 1
30.8796 31.1515 30.1207 1940 2
34.8736 33.936 30.1322 24974 2
33.4498 32.0106 29.2213 984 1
31.7619 34.3272 29.2831 1029 2
46.0457 74.8686 31.2948 21842 1
36.2941 32.2256 28.0889 1077 2
38.9584 32.9841 28.8087 1199 2
37.1218 32.393 30.6134 1080 1
37.8239 34.9235 31.0474 20283 2
36.5239 35.3681 28.1859 41937 2
39.5764 31.9125 31.7813 41895 2
41.0957 31.7327 28.2715 42701 1
40.1917 35.1598 29.8533 2002 1
41.8736 33.0068 30.304 2004 2
43.8681 32.5385 27.9543 41848 2
48.2628 32.2241 29.8241 2942 1
44.6448 34.5567 29.5184 2990 2
47.4872 34.6799 29.5396 2067 2
45.6744 32.3141 31.0368 43700 2
46.844 33.0126 27.5863 197 2
50.4836 33.5276 30.1663 237 2
52.592 32.2783 31.2216 2902 1
51.6941 33.4676 28.0569 291 1
48.7863 35.206 31.6263 236 1
18.1335 46.0533 67.0374 11171 2
50.4277 31.3118 31.6761 42715 1
56.4802 34.4805 28.8901 19334 1
54.1411 33.143 29.1964 20251 2
55.7053 34.2548 31.0791 1208 1
54.7807 31.7194 31.7368 249 1
30.473 65.4171 27.4487 5309 2
57.0955 32.061 30.3432 2077 2
59.3957 31.3344 28.439 1109 1
59.1133 33.7531 28.3923 241 2
59.7734 33.2413 30.7523 19233 1
57.7964 35.0053 30.7701 19235 1
61.9046 32.2849 28.9709 1112 2
61.7843 34.9775 27.4815 1111 2
63.1821 35.342 29.9432 43165 1
64.5077 31.7964 28.3135 18380 1
63.9878 33.2939 30.3944 19341 1
64.719 34.6744 27.9771 19232 2
66.0677 31.8219 30.2378 19289 2
66.361 34.6362 31.2207 20256 2
68.746 31.9613 28.9338 20162 1
17.4311 54.7267 65.8118 13136 2
69.6073 34.0647 28.862 19293 1
67.3468 34.3468 28.6672 20215 1
68.6119 33.2827 30.989 19347 1
68.7433 35.6567 30.2599 19339 1
74.3738 31.2421 30.3232 43989 1
73.7274 32.6299 28.5575 19297 1
71.3726 32.2264 30.0802 19246 2
73.765 35.1247 29.7186 43988 2
71.7099 33.8016 28.178 18438 1
71.1908 34.5453 31.4928 19295 2
74.3206 33.5937 31.3625 19301 2
20.9735 35.4947 31.0372 63543 1
19.7119 37.1507 29.7321 63542 1
18.6958 39.1657 30.98 63318 1
18.0966 39.1331 28.3642 63537 2
20.6789 35.2312 27.4831 63683 1
50.2197 68.3662 27.3462 1488 2
22.5865 39.4267 28.7857 2045 1
22.2244 36.6242 29.1452 1988 2
24.7865 38.2355 29.7293 2036 2
26.0721 35.756 30.3611 1075 2
24.5208 36.3796 27.9739 2034 1
29.5233 36.2439 30.5032 1074 2
27.2304 37.1755 27.9726 41015 2
29.484 39.2605 29.2637 1028 2
27.4893 38.4968 30.8931 1122 2
30.1232 36.6115 27.7398 1027 2
34.5487 38.7463 29.128 2829 2
31.867 37.4614 29.3715 1079 1
33.9439 36.1194 29.0284 41936 1
32.7767 36.0713 31.5437 1997 2
30.7851 38.524 31.6465 2870 2
33.2501 39.3646 31.5352 20156 2
65.3376 65.6974 27.3701 2354 1
35.6056 37.0334 30.827 1995 2
38.0068 37.302 28.9736 41068 2
37.9551 39.0491 31.3435 2061 2
37.2847 39.7804 28.7893 41072 2
42.5362 35.7111 28.0367 41024 2
42.2122 35.9904 30.6053 2944 1
40.7498 37.3665 28.8334 40988 1
42.744 38.3236 30.372 2066 1
40.0335 37.6029 31.3424 41994 2
75.2274 64.4812 73.8583 27678 1
41.3889 39.9738 32.0431 3037 2
44.5827 37.2447 28.6699 1159 1
45.1192 39.1733 29.7587 41031 1
47.6504 37.3593 29.3498 330 2
45.1677 36.7505 31.0394 2995 2
46.7467 38.9828 31.5786 25017 1
44.1603 39.5497 32.0483 2111 1
56.7805 18.731 63.3808 16709 2
52.9108 35.2816 30.7852 2022 2
50.1926 36.2273 30.017 41035 1
52.238 36.2729 28.1196 1155 2
52.0885 38.0809 30.3771 1162 2
49.3017 38.3376 31.2525 1213 1
53.9009 39.0055 28.4999 18473 2
56.3555 38.4282 28.2049 41085 1
55.3892 36.9006 30.6581 20297 2
54.7141 39.2822 31.1891 388 1
54.8336 36.1918 28.1883 44000 2
57.3262 38.7828 30.8855 18430 2
60.6894 35.5392 30.2549 2121 2
58.3183 36.6567 28.7127 288 2
61.2033 38.098 28.0019 18381 2
60.0068 38.3088 30.1653 18376 1
58.6835 39.5401 28.2124 19282 2
58.8813 36.8826 31.8014 19276 1
62.4855 37.8721 30.9218 19286 2
63.8973 37.1192 28.6847 1119 1
64.8693 36.9656 31.0033 20213 1
64.4185 39.2521 29.6617 44031 1
66.0474 39.1964 31.4056 20260 1
62.8839 40.3518 28.2608 18379 1
66.4673 37.0645 28.7217 19281 2
68.9206 37.973 29.7389 19290 1
68.4762 39.5009 31.5343 163 1
67.2569 37.1612 31.4931 20208 1
66.8367 40.0201 28.9221 18433 2
69.9302 37.0338 32.0517 19291 2
70.6886 39.0395 28.4242 18383 1
71.015 36.3869 29.0038 19349 2
71.1508 38.9709 31.0784 18437 2
72.4767 36.7922 31.102 25899 1
74.1786 39.0617 31.1625 19352 2
73.0792 38.0134 29.0136 18386 1
71.846 71.7085 74.204 26052 1
18.6594 41.6911 30.3289 63648 1
19.8657 41.894 28.5569 63678 1
20.3614 39.7922 29.4394 63529 1
20.8868 43.7776 30.7396 63528 2
21.5043 43.6932 27.7032 48570 2
21.8861 41.6585 29.6803 21093 1
23.4051 40.2099 30.9969 2039 1
24.2331 41.6578 28.6906 41066 2
23.7561 43.4283 30.8575 63091 2
25.9882 41.1581 30.6472 2037 2
26.1033 43.6784 29.8907 2969 1
26.8893 40.1521 28.2391 41016 2
28.337 42.55 28.8601 43701 2
29.2134 41.333 31.2764 25055 2
17.4409 55.8733 60.4435 10412 2
33.6922 41.6349 28.9141 1998 2
31.1751 43.3463 29.7055 2090 2
31.5281 40.661 29.9091 41941 1
34.821 43.7271 29.8233 2051 2
32.609 42.0817 31.5407 1994 1
38.157 42.1418 29.5901 1202 1
35.8695 41.1731 30.9127 2053 2
36.39 42.268 27.9241 2056 1
37.1303 43.9887 31.6233 2153 2
39.0172 41.6188 31.9016 2926 2
40.2297 40.0562 29.3029 41984 2
40.0947 43.1171 28.1698 3133 2
42.2686 41.5034 28.0926 1200 1
41.1498 42.6565 30.7566 1198 2
43.0683 40.8065 30.0543 25047 1
43.7838 43.3114 29.5231 1251 2
48.3113 40.2882 29.2201 2119 2
44.7211 41.1024 28.2573 25049 1
46.802 42.8733 28.8065 1254 2
45.9035 41.5315 30.9759 25018 2
51.0611 40.0935 29.0857 290 1
48.9096 42.5056 30.1662 2113 1
51.5053 42.6127 29.1086 289 2
50.4066 40.8014 31.3835 2074 2
53.1844 40.9325 30.2048 20299 1
53.7057 41.7765 27.9217 1167 1
55.9761 40.8762 29.3927 18427 2
54.444 43.203 29.9449 39218 1
57.2552 43.5793 30.4726 19337 2
55.6393 43.3991 27.8943 1264 1
58.1366 42.7165 27.9352 1350 2
58.5251 41.0713 30.5963 18378 1
61.0404 40.6548 30.0688 20206 2
60.1319 43.1739 29.596 1255 1
62.4263 42.755 28.7731 18479 1
64.3266 41.8665 30.513 19338 2
64.4223 44.1461 29.3914 18435 1
66.2068 44.6852 31.3493 21284 2
17.643 63.0414 38.8195 62928 1
69.0815 43.8839 27.7424 18436 2
66.6858 42.7755 29.1402 19384 1
69.4016 41.1096 29.2905 18439 2
68.4023 43.9358 30.1414 19396 1
69.9571 41.5128 31.78 19340 1
70.5412 43.574 30.5911 19389 1
72.6007 40.3674 28.9997 18443 1
71.9703 41.649 30.7961 20353 1
74.5588 41.9909 30.8338 20361 2
71.7532 42.973 28.4117 19401 2
72.9082 44.2734 30.3751 2141 1
39.5016 18.0421 28.5717 1904 1
18.56 44.5227 29.3106 63282 2
18.5863 47.2427 30.133 63280 1
21.1327 46.4077 29.1035 53468 2
20.1914 45.9921 31.6423 48662 1
24.2377 45.0868 28.631 63650 2
23.4395 47.5464 29.4806 2088 1
25.9406 45.8991 31.0009 2044 2
22.852 46.0826 31.4985 63083 2
25.9232 48.5064 29.7682 63281 2
28.5905 44.2424 31.6246 2971 2
27.3568 45.8213 28.1936 41064 2
29.5815 45.2852 29.4104 2049 1
28.3128 47.0037 30.4184 1131 1
28.2571 48.2314 28.5017 41062 1
30.6814 45.7967 31.4748 2046 1
30.9224 48.0255 29.8858 41946 2
32.5715 45.8587 28.881 2157 2
34.3896 48.2153 30.0461 2095 2
32.8395 44.5568 31.456 2979 1
32.7145 46.9776 31.5577 2922 1
34.934 45.7213 31.6204 3952 1
32.6691 48.2933 27.6681 2092 1
37.6106 44.5472 28.5769 41939 2
39.5429 44.8135 30.6077 2156 1
39.2978 46.5516 28.4593 41124 2
35.7501 46.1374 29.4196 41990 1
37.4631 46.9247 31.0645 2159 2
37.1963 48.3518 28.7971 2155 1
41.5322 44.9357 29.3709 1249 1
40.8251 46.9542 30.9208 1292 1
43.5609 45.8206 30.4591 2162 1
42.0281 47.3993 28.4364 1293 2
43.1509 48.0678 31.3732 25009 2
43.7464 45.4348 28.1495 1257 1
47.5576 44.5489 31.2541 1253 2
44.7624 47.8875 28.6692 2169 2
45.8121 45.2242 29.285 381 1
45.6282 46.9359 31.0586 21219 1
47.5424 46.6387 29.5368 385 1
47.2971 48.6593 31.1175 2214 1
50.2599 47.2916 27.8609 1305 2
49.1025 44.7025 28.8386 340 2
51.8486 48.0339 30.2536 1345 1
49.6559 46.6657 30.8299 2208 2
52.0929 45.0726 30.1883 25040 2
53.0447 46.9077 28.1226 1298 2
18.8937 33.4877 27.534 74584 1
53.4729 44.1924 27.9386 1307 1
55.5115 45.7549 29.1527 1306 2
56.707 47.8745 27.4614 19426 2
56.723 48.2486 30.8743 21280 2
54.09 47.1678 30.8774 3089 1
59.696 44.7434 31.19 25046 1
58.6008 46.0771 29.473 1303 2
61.2598 48.3948 29.0324 2172 2
61.6913 45.5455 29.5075 20338 2
62.603 47.5042 31.1204 259 1
63.7417 45.4127 31.3518 20304 1
64.3401 46.635 28.692 19386 2
65.5294 47.3283 31.0292 25875 1
35.3762 18.1438 43.102 20459 1
67.316 46.0687 29.2877 21192 2
68.1594 47.7826 31.3122 19439 2
66.3641 48.9707 29.2293 25042 1
68.7873 48.4402 28.4879 18476 2
70.3954 46.022 29.6493 19436 2
72.8998 45.535 28.4146 18542 1
74.0134 46.6571 30.1984 20313 2
71.4077 48.5533 30.4069 2268 2
72.4373 48.1148 28.0565 19445 2
19.3045 49.402 28.9667 63274 2
17.8286 51.779 28.8136 54461 1
21.0934 48.9157 30.6176 48858 2
20.184 52.0169 30.2175 63060 2
18.117 50.4243 31.1777 63275 2
26.9754 71.4839 27.5089 63125 2
23.6365 49.7466 29.8007 63527 1
25.2182 51.0763 28.216 2085 2
22.3719 51.6838 29.0203 63486 1
24.8597 51.815 30.767 63483 2
17.6053 69.5047 34.7194 55739 2
27.8087 50.6058 29.6053 24951 2
29.5381 52.3627 28.8951 2040 1
30.5735 50.7184 30.2151 40237 1
26.5958 50.3517 31.8061 2091 1
28.8476 52.2238 31.6739 2973 2
32.5507 50.0814 29.1306 41115 1
34.688 50.7383 30.2777 41120 1
32.27 52.6236 29.4697 2048 2
36.5936 75.004 39.4914 24790 2
32.5137 49.6458 32.1304 3028 2
37.2712 51.1961 29.0235 378 2
36.598 49.5362 30.8329 63642 1
37.1262 53.0095 31.324 2199 2
38.7267 50.9354 31.6816 1336 1
39.5686 48.9779 30.2152 1294 2
40.4215 51.7044 29.4538 1339 2
42.0582 50.0062 28.7277 2200 2
41.9972 50.6893 31.5493 2242 2
43.4199 52.6642 29.21 383 2
47.5597 49.3077 28.4268 41079 2
45.0346 50.2873 30.6756 1295 2
46.3802 51.9973 29.2175 394 1
48.01 51.1441 31.1577 25836 2
45.7746 53.1584 31.5123 1389 2
48.798 52.1901 28.0255 3092 2
49.9838 49.9003 30.0116 2213 2
52.1092 49.8278 27.9583 25001 2
50.9161 52.6363 29.7425 4065 2
52.4834 50.4229 30.7853 1301 1
54.5205 49.1237 29.1414 19428 2
53.561 52.0833 28.9237 25885 2
56.0625 51.3742 30.5892 25890 2
57.3131 50.5012 27.995 1268 2
67.6762 74.6963 55.3505 27162 2
58.6869 48.5501 29.1481 19470 1
59.5507 51.1657 29.551 3150 1
60.8934 52.9534 30.2856 19379 1
58.0334 52.8211 29.1133 1267 1
58.5146 49.7937 31.2878 1310 1
61.4415 50.3771 31.3827 20342 2
62.5073 51.3083 28.7894 19483 2
63.983 49.3047 30.2011 18534 2
65.2195 51.3158 29.5269 20397 1
63.5554 52.0802 31.372 20392 2
67.7898 51.1565 28.8559 19482 2
69.5036 50.2701 30.7559 1224 1
70.2394 52.9211 28.7678 19488 2
68.6486 53.0453 31.3045 20391 2
66.8764 50.3605 31.6574 20351 2
70.4794 50.1806 28.5722 20352 1
74.2974 49.4216 31.1195 25005 2
73.089 50.8543 28.8518 19532 2
71.7673 51.7348 30.9403 20394 2
74.2247 52.0434 31.8798 19485 1
18.7473 54.3764 28.6036 63500 2
21.5127 54.1468 28.3393 63481 2
19.8457 55.0063 31.2698 63223 2
20.346 56.936 28.9765 48680 2
22.158 56.098 30.8452 63485 1
22.4122 53.524 30.7969 63046 1
24.0063 53.6479 29.0668 63235 1
23.2941 56.578 28.4834 63634 2
24.6864 55.1828 31.182 63188 2
26.3085 56.5694 29.0881 63479 2
26.8833 53.5087 29.8559 2089 2
29.0062 56.6558 29.7761 3022 1
28.7711 54.8459 27.8364 40191 2
30.2279 54.4318 30.4143 40239 2
31.6763 55.6183 28.005 42703 2
33.3106 55.0329 30.0254 41977 1
34.603 55.794 27.6251 41126 2
31.7477 57.2144 30.7033 2982 2
35.0804 53.2525 29.0908 41170 2
36.8479 55.2717 29.354 477 1
38.8935 55.8521 30.8933 3191 2
38.636 53.6712 29.2045 19545 1
35.3693 55.3721 31.7536 376 2
39.5226 56.1642 27.9358 1343 2
39.6941 53.3392 31.4123 2201 1
40.84 54.5027 29.796 481 1
41.9198 56.535 31.2556 2289 2
42.8921 55.2646 28.8667 1386 1
42.1012 57.5078 27.5515 435 2
42.599 53.4376 31.7278 1388 2
45.6637 54.2804 29.1587 2240 1
47.48 55.6735 27.9771 1348 2
44.1445 55.3453 30.7596 1347 1
44.9035 57.1689 28.9687 1390 2
46.4645 55.9527 30.5971 1393 1
48.2525 53.9326 30.6624 1297 2
50.0234 54.9526 28.6562 19565 1
49.3419 56.9095 29.9699 20463 2
51.6347 56.9141 27.9814 1399 1
52.1025 55.6963 30.4028 1397 2
52.448 54.5507 28.0783 1352 1
54.407 54.4932 29.673 19469 1
54.3768 56.4272 27.8318 20435 2
54.4143 57.2746 30.632 19657 1
56.5921 54.8438 28.5202 19517 1
56.4661 54.1417 30.9999 25867 2
55.9171 52.6209 27.9122 19473 1
57.1983 57.1049 29.8326 448 2
59.4184 55.114 29.8355 25887 2
59.6601 57.6824 31.0164 444 2
61.6396 56.6842 29.2489 25865 1
61.9011 55.5213 31.7176 19430 2
63.1785 54.3474 29.345 19476 2
64.4254 56.6975 28.8626 19570 2
64.805 55.7456 31.4439 19478 2
66.2885 53.7883 29.4448 19486 2
67.1022 56.5029 29.5337 19585 1
68.7088 54.9779 29.3615 19523 1
67.3208 55.5169 31.5455 20445 1
69.7857 56.9298 27.9243 19586 2
69.2745 57.7311 30.6894 19626 2
71.1643 55.3671 30.2535 19524 2
73.0868 54.0619 31.6867 20447 1
72.7905 53.5457 29.1577 20402 1
73.8117 56.4144 28.9362 20444 2
74.894 55.6403 31.5945 20446 1
18.922 63.4094 27.6151 53783 1
71.468 73.5919 72.7067 15179 2
21.2974 59.2673 27.8586 63438 1
19.041 59.6934 29.2563 63040 1
19.1339 58.1083 31.1366 63185 1
21.5297 59.0154 30.4629 63183 2
21.8478 61.7628 31.0107 63233 1
23.9236 59.2093 28.7711 63433 2
25.3245 58.3302 31.186 53648 2
26.0592 60.9032 29.8035 63042 1
23.865 60.5805 31.4645 63186 1
26.4495 59.1022 28.1623 63410 1
27.9363 59.1639 30.2316 63272 2
29.5703 60.8833 28.3963 53557 1
30.2169 58.2783 28.2717 25023 2
30.5543 60.1176 30.664 3012 1
34.9732 57.3712 30.185 428 2
33.0667 58.2003 28.2784 41981 1
32.8651 59.7185 30.9135 24941 1
32.133 60.5484 28.5576 1382 2
35.162 59.8921 29.2111 24999 2
74.8011 38.9554 43.7845 22065 1
37.358 57.7116 28.582 1338 2
37.6 58.6191 31.1844 1385 2
38.2687 60.6127 29.3255 24937 2
34.0943 18.3961 58.7798 6389 1
40.436 58.2421 29.8495 429 2
43.1185 58.9721 29.8849 1387 1
41.566 60.5028 28.3734 479 2
43.0297 61.3477 30.9019 1441 2
45.613 60.2562 30.196 1445 2
47.1197 58.2343 30.7343 2294 1
47.2318 58.7719 28.0953 1447 2
46.4881 61.322 27.7406 1395 1
48.4526 60.8588 29.6008 1444 1
52.1489 61.1764 28.1231 2342 1
50.1523 59.2473 28.336 19569 2
52.408 58.9272 29.9442 1398 2
50.7949 61.5669 30.506 25035 1
49.6011 59.3115 31.3318 3201 2
53.3108 61.356 30.3115 24996 1
55.2506 59.2128 28.7935 20473 2
55.7191 61.4852 30.3374 25862 1
48.9591 25.7823 27.4624 23205 2
59.657 57.646 27.9352 19575 2
58.2684 59.9288 28.4823 19618 2
60.4189 59.722 29.7601 20476 1
57.5138 59.8152 31.2782 20477 2
62.4571 58.8049 28.605 19572 1
64.6656 59.6754 29.4462 19520 1
62.4937 60.9053 30.4364 19623 2
63.6217 61.6215 27.7431 19580 2
62.8119 58.0603 31.2357 20428 2
66.227 58.2876 31.1662 19578 2
66.5089 61.5343 28.4229 546 2
67.3689 58.9772 28.5112 1420 2
69.7442 60.5364 29.6334 20487 2
67.4783 60.5708 30.6371 20483 1
71.4725 58.0135 29.401 20488 1
74.5593 61.277 30.9404 20497 2
72.5334 60.387 28.715 20485 2
74.468 58.3214 30.4144 20489 2
71.6476 59.7248 31.5589 20537 2
17.6381 62.0522 29.5925 55544 2
20.6824 61.9818 28.9268 63425 2
20.3248 65.727 28.8606 54635 2
35.1714 18.1233 50.2491 20436 1
19.4581 64.0624 31.0799 63146 2
17.8183 65.0069 29.0067 55588 1
23.9375 62.1549 29.034 54632 2
25.3472 64.7674 29.4295 63028 2
22.3095 64.0374 30.1384 48872 1
28.7428 61.7333 30.6345 48774 1
27.5898 62.6328 28.1176 63227 2
29.3156 64.5138 30.3025 63176 2
26.7957 63.3358 30.8056 63043 1
30.7797 62.954 28.9127 24954 2
27.6587 65.5989 27.8381 5799 2
24.0762 18.1956 51.3224 7352 1
33.8957 62.3304 30.4675 3025 2
33.5229 63.4628 28.2577 19499 2
32.3625 64.5964 30.2871 2284 1
32.9313 66.0114 28.5269 24853 1
31.3916 62.5213 31.6722 22153 2
34.1081 64.4149 32.0177 3948 1
35.6123 65.6539 27.4872 24997 2
36.3576 61.9899 30.381 20458 1
36.3951 62.4425 27.9299 2288 2
38.2769 66.1287 28.4179 2328 2
35.8432 64.8676 29.999 3184 2
38.4974 63.708 31.0283 1384 2
38.9776 63.4473 28.3752 2286 1
40.3178 62.2571 29.8198 19607 1
42.3872 63.8526 29.6032 1439 2
40.6162 65.5158 30.8825 2331 1
40.9274 62.7678 27.5396 25906 1
40.8055 65.5799 28.4583 572 1
44.2512 62.3611 28.4882 1391 1
44.6564 63.4185 30.9006 1438 1
47.3748 64.3156 27.8737 528 2
44.7574 65.0417 28.4666 1442 2
47.0218 62.8997 30.1034 1443 2
45.3456 65.4994 31.0218 19652 1
47.7661 66.2887 30.2079 19614 2
49.4319 63.5699 30.235 25036 1
52.2286 63.6563 29.7995 19617 2
50.2658 65.5298 28.3705 1446 2
50.8009 66.1656 31.1385 2388 2
49.8438 62.4287 27.8836 19660 2
54.4857 61.6136 28.1906 18770 1
55.8135 65.7985 27.4341 583 2
54.6795 63.8662 28.9771 19665 1
56.0033 65.4012 30.6873 2430 2
57.1532 62.7314 28.813 20521 2
53.1021 65.9588 28.876 2381 2
53.3812 65.513 31.4944 1490 1
60.9153 65.6828 28.8244 19670 2
58.5297 64.7885 29.728 20522 1
59.9128 62.449 28.983 18729 2
60.8371 64.7392 31.2136 20566 2
59.3613 62.1858 31.3287 20525 2
65.2335 62.0326 30.8002 20528 2
62.5313 63.3221 29.2272 25860 1
64.9367 63.6239 28.7024 19625 1
63.6883 65.4075 29.3331 19624 1
64.1486 64.1135 31.3677 20575 2
34.9862 49.8214 27.5294 41077 2
66.6303 65.7821 30.1831 21433 2
67.1542 64.0975 28.3894 602 1
67.7641 63.0739 30.6106 20533 1
70.0816 63.5056 29.4431 20527 2
69.0535 64.8676 31.5113 25854 1
70.0147 66.2985 31.4812 23502 2
30.5194 74.5963 52.8683 8157 2
71.9765 62.1228 30.6297 21396 1
73.3666 63.3816 28.6279 19679 2
72.4588 65.93 29.8439 21693 2
71.3993 64.0217 31.8042 19639 1
74.0856 64.0608 31.4986 22549 2
43.6273 74.9837 62.6243 9840 2
40.2121 74.8135 55.0372 27121 1
18.7721 68.1909 28.8387 54678 1
21.4234 68.4755 28.4619 63142 1
20.748 67.7969 30.7277 63177 2
18.2358 66.7258 30.6426 50692 1
19.7344 70.3468 29.9218 54810 2
74.29 72.744 73.2823 25193 2
23.7902 65.9488 31.2043 55685 1
22.9373 66.6332 29.1814 63141 1
23.3327 69.1668 30.3157 54677 2
25.1029 67.4851 29.4267 63140 1
25.9272 69.716 29.7296 63124 1
27.714 67.223 30.1809 63144 2
29.2996 67.7066 28.126 1383 1
28.5146 69.9027 29.5873 63139 2
31.0771 66.8135 30.1645 63037 2
26.8261 68.3807 27.9746 55682 1
26.991 70.3958 32.0166 4452 2
71.5668 30.8798 27.3083 43793 2
32.0831 68.1795 27.5632 63014 2
34.5035 67.7298 28.6312 48819 1
33.2713 69.665 30.1437 4408 2
33.998 66.775 30.9715 5806 2
31.1046 70.4357 28.5408 4458 1
38.5549 66.5557 31.0983 2332 1
36.8051 68.1651 29.6615 2373 2
39.0378 69.6425 30.3055 2419 1
74.9828 39.8406 28.7235 18489 1
40.4137 67.9688 29.3007 1482 2
42.9731 68.908 28.7093 579 1
43.1313 67.1047 30.5289 2420 2
41.9059 69.3915 31.1039 1485 1
64.1329 74.9798 34.9124 21783 1
45.7503 67.7354 28.8524 578 2
48.1271 68.9057 28.6519 1528 1
44.5338 70.0162 30.876 1483 2
47.569 69.5869 31.4607 3294 2
45.7593 67.6714 31.4439 25034 1
46.5455 70.5113 28.9996 3300 1
30.3798 24.4649 27.6366 933 2
49.6905 68.3355 30.4023 2338 1
51.9113 68.0841 29.6149 2427 1
52.0361 70.1834 29.0566 2431 1
58.2544 74.8829 60.17 28037 2
54.1473 70.4039 30.6298 1533 2
55.344 68.1864 29.018 2425 1
54.0174 67.7878 30.8938 2384 1
57.1605 69.9517 28.8852 19667 2
17.3394 58.3096 46.7322 62729 2
60.6594 69.2174 28.438 19718 2
60.6708 67.7821 30.779 20569 1
58.1193 67.171 28.8222 25882 2
59.0269 69.6746 30.5384 25855 1
58.601 67.0213 31.3474 20474 1
62.817 66.5802 30.9395 20571 1
63.1986 69.7863 28.1422 21779 1
64.8244 67.6585 29.2275 20529 2
62.9425 69.0178 30.5069 21735 1
65.8272 68.7227 31.3196 19669 1
62.6327 67.2137 27.7469 18779 2
22.2487 49.3566 27.7106 48669 2
69.1445 66.19 28.6031 18736 2
68.0298 68.9483 29.724 22589 2
70.3419 70.084 28.5848 18741 1
43.0437 74.9829 36.7758 5424 2
70.6207 68.1668 29.7067 25816 1
71.0182 67.7394 27.4042 2396 1
73.2654 68.9494 28.7719 2592 2
72.2358 68.0845 31.2238 25853 1
17.7094 72.2992 28.4035 63105 1
22.0005 70.6947 28.3452 63128 1
19.4853 73.6482 30.363 54859 2
20.5816 72.8704 28.1434 54023 2
74.9378 56.1702 39.5857 21392 1
22.1377 74.7754 29.7582 63116 2
22.1006 71.959 30.8867 62901 2
24.272 72.2662 28.4188 63118 2
24.7325 71.5723 30.9579 63010 1
24.7508 74.051 31.1263 4505 2
66.6105 32.4074 27.7399 19288 1
23.0911 74.8683 41.9202 5410 1
26.7424 72.7648 29.6436 48908 1
28.8593 72.0159 31.2719 4507 1
29.607 72.6882 28.7664 3587 2
27.7943 74.4539 27.8688 3538 1
74.9455 47.9019 66.5813 29144 1
33.9874 74.7632 27.8955 3590 1
34.7054 71.6879 28.5411 21775 1
33.8164 73.0789 30.5185 3599 2
32.4797 72.6975 28.4171 4512 1
31.3509 72.4423 31.1111 3543 2
75.0513 30.6017 41.656 22010 1
35.4581 70.891 30.721 3598 1
37.1165 71.0311 29.1988 3597 1
36.3747 73.7229 28.892 3602 2
38.7435 73.093 27.5801 22511 2
39.2999 72.7132 30.4563 4520 2
43.1785 73.1814 27.6884 577 2
41.1777 71.0856 28.7608 2374 2
42.7599 72.5046 30.4338 1532 2
40.8273 73.8861 28.6183 19699 1
44.0937 70.8466 28.3177 530 1
48.4489 73.1821 27.7876 633 2
45.6213 72.9752 29.6475 1487 2
47.9752 72.5397 30.8902 2424 2
74.9672 48.1874 57.2514 28349 1
74.4074 23.5556 53.5814 29078 2
52.5906 74.6821 30.7329 22632 1
28.393 75.1428 30.3126 22518 2
49.5892 71.0355 29.5868 2426 2
50.2827 74.0581 29.7064 21736 1
51.938 72.2267 30.1974 22630 1
55.2664 74.7765 30.5072 21729 1
54.7983 71.0728 27.9563 25821 2
54.0194 73.003 29.5234 21526 1
56.7947 72.3137 30.2494 21476 2
55.6394 73.9108 28.3594 12850 1
58.4403 74.4916 30.8974 20618 2
59.6436 72.0325 29.5474 20619 2
60.3507 74.5384 28.1429 21788 2
57.8047 74.0431 28.3503 25814 1
61.2862 73.5196 31.1426 21730 2
30.4776 41.8288 27.5596 41883 2
62.4376 71.4579 29.5701 25856 1
65.1551 70.7825 29.8579 20824 2
63.6356 73.864 29.2522 22588 2
63.9516 74.4484 31.7335 23542 1
68.9324 74.6549 29.8612 21787 2
66.2841 72.7478 31.0827 22638 2
66.5943 73.9663 28.3316 21781 2
70.0081 72.6707 27.9607 22688 2
68.8179 71.5107 30.6689 21737 2
67.5088 71.539 28.5208 21740 1
71.6729 70.9684 30.6219 22642 2
72.4028 71.3815 28.197 21785 1
71.7307 73.6349 29.8234 25817 1
73.7871 73.8 28.073 20834 2
74.0859 72.544 31.2474 21791 2
24.2109 75.0838 50.9315 7208 2
20.4526 18.8044 35.0712 2716 2
18.2761 19.4649 33.2254 59349 2
20.762 20.2877 32.4444 25064 1
19.1375 22.0265 34.1636 20051 2
22.0264 21.3064 34.4611 1841 2
23.2168 19.1681 32.8064 20009 2
24.6834 21.8312 33.1179 24990 2
23.6565 19.0452 35.6066 3701 2
25.6711 18.8851 33.6409 784 2
25.1053 21.7311 35.6005 2770 2
27.2449 20.8219 34.7938 2772 1
27.6686 20.4562 32.3559 2717 2
28.5184 18.3428 34.5255 1847 2
29.3014 21.5941 34.4398 2776 1
30.3255 19.5453 33.2153 1891 2
34.2903 21.2668 31.6142 2726 1
32.9918 18.9323 32.2038 23637 2
33.2698 21.3421 34.0974 2775 2
32.2141 18.7564 34.9708 987 1
34.5902 19.5568 35.974 3660 2
35.5702 19.1996 32.1071 20120 1
38.5116 18.9836 32.7084 21910 2
36.379 20.9165 34.1935 1900 2
37.8315 18.8772 36.105 3663 2
39.3219 21.0906 34.4018 3662 2
39.8243 21.5252 31.8158 3657 1
41.9938 19.8906 33.6804 22582 2
43.8568 18.6285 35.7356 3667 2
43.9163 22.6864 34.0501 2784 2
44.6704 20.0884 33.7496 12875 1
45.6095 21.4143 36.0215 2791 2
47.5399 19.8663 33.6471 23264 2
48.8017 21.5295 35.3017 2736 2
50.2891 21.7069 33.3531 21895 1
51.5659 19.1638 33.755 3670 2
49.5152 19.0836 35.3742 22528 1
52.9638 21.8995 33.5245 2785 2
57.2389 19.4157 31.9273 11602 2
53.5382 19.9925 35.359 21898 1
55.2662 21.2537 32.2409 23127 1
55.8001 20.6535 34.8213 22564 2
54.3359 18.4983 32.6514 22533 2
57.7194 21.7256 32.9813 23632 1
58.1947 19.6423 35.0313 21893 2
59.508 20.0921 32.6687 20993 1
60.2753 21.7829 34.4925 20141 2
61.082 18.5498 34.1893 22527 2
63.5068 18.0417 33.5002 12512 1
62.0421 20.7121 32.1905 38322 2
64.65 19.9752 32.6797 12897 1
63.1194 20.2771 34.7661 25850 2
65.6773 19.0896 34.8875 31025 1
66.8251 21.4006 34.0679 11550 2
68.7101 18.9873 32.9824 30802 2
69.4697 20.9611 34.5592 1659 1