ITEM: TIMESTEP    
30000     
ITEM: NUMBER OF ATOMS  
77888     
ITEM: BOX BOUNDS pp pp pp
17.607 132.393    
18.0782 131.922    
19.4187 130.581    
ITEM: ATOMS x y z id type
20.6816 18.583 22.1632 1839 2
19.1271 21.0555 21.3522 72779 2
21.8189 21.5652 23.0896 977 2
20.0589 18.6507 19.5546 20011 1
38.2097 74.7745 55.102 24480 1
22.1478 20.5343 20.2405 72830 2
23.3541 19.1595 22.8709 23170 1
25.7914 19.7342 22.3781 22628 1
24.468 21.6073 21.0434 72824 1
26.9426 22.0881 21.8971 1846 2
29.7904 20.6931 22.8557 20062 2
29.4961 21.8054 20.104 2719 1
28.081 19.2179 20.6222 22548 2
17.6548 31.4003 36.2333 62790 2
73.9949 18.3024 52.792 5180 2
32.0216 20.0946 20.6641 24988 2
32.5407 21.7087 23.2285 43709 1
34.5212 20.4448 21.6211 1851 2
37.213 20.9985 19.8125 22537 2
37.1026 22.0516 22.707 1899 2
38.9656 18.824 19.9556 1904 1
37.0071 18.6458 21.9287 22536 2
39.7 20.2929 22.0054 1854 2
39.4169 22.5846 20.5233 2790 1
42.0508 21.8009 20.825 40934 2
41.8085 18.6677 20.2553 23153 2
42.8479 19.8414 23.0993 23128 2
41.1102 22.2297 23.2292 3665 1
44.7185 20.1416 20.4529 1099 2
47.6744 20.6964 21.0722 40834 2
48.0971 21.7914 23.4443 1908 1
49.8068 21.7722 19.987 40893 1
50.3771 19.8411 22.7021 22529 2
52.2308 21.0827 20.2809 38365 2
52.8338 18.7545 23.2604 22574 1
49.8121 18.7029 19.5705 38521 2
54.9087 20.5737 21.9912 23176 2
57.2433 19.3443 22.2205 13500 1
57.4756 22.1773 21.4338 38629 2
60.715 20.7547 20.8251 31298 2
74.9349 30.2692 36.6428 22960 2
71.0882 70.815 74.8531 26004 1
60.1876 18.261 19.5128 31004 1
64.1678 20.7458 21.2456 21892 2
62.4188 18.3904 20.8028 31021 1
62.5932 19.763 23.5701 38322 2
23.3717 18.4466 52.2159 8256 2
66.4102 20.3911 22.7495 20998 1
67.2737 19.444 20.0003 31023 2
68.931 20.7987 22.6059 19245 2
66.9684 21.9332 20.8169 31293 1
47.3205 65.886 19.5413 577 2
74.1714 20.2213 20.1788 31289 2
72.9838 18.7854 22.8002 21403 2
70.8963 20.0555 20.9782 30996 2
72.4697 22.1818 22.1356 12413 2
21.0904 24.0926 22.2032 25062 1
19.6749 25.4727 20.6948 970 1
18.0026 23.7106 22.2122 1928 2
74.9268 35.7784 20.3724 25919 2
21.9744 25.736 20.5117 52493 1
24.0719 23.8815 22.5332 25024 2
25.3634 23.7499 20.0232 926 1
22.8715 23.3215 20.2412 1942 1
22.5983 26.087 22.7065 1888 1
24.9161 26.5656 20.912 25061 2
26.9133 25.0531 21.7705 1945 1
29.2454 23.5934 21.9105 1895 1
29.6588 26.1493 20.8068 40920 2
64.0028 74.8606 26.5775 23542 1
32.0714 18.1776 48.485 24603 1
31.6396 25.4162 22.829 25060 1
31.7135 23.3809 20.9527 989 2
33.5159 26.2198 21.1361 1035 2
34.0393 24.1403 23.4112 25027 2
35.1393 23.2792 20.4822 40928 2
36.6002 25.5546 21.9568 2729 2
39.4564 26.5684 21.1612 2836 1
39.2986 24.2512 22.587 3770 2
41.1928 24.8431 20.4621 1956 1
42.4794 24.194 22.5672 2782 1
43.5314 23.9937 20.2177 41801 1
42.9395 26.5231 19.5828 1897 1
45.2104 22.5022 22.2793 43705 2
48.3082 23.8248 21.4959 40989 2
45.2626 25.8201 21.2186 40939 2
46.4455 24.6013 23.392 1153 1
51.0295 22.699 22.5088 1110 2
48.9725 26.2924 20.0438 23205 2
50.6664 25.9563 22.8229 2020 2
51.3276 24.2886 19.8176 19180 2
52.8624 24.8388 21.8576 23642 1
53.9121 26.7572 23.2551 20144 2
56.6566 24.8411 22.8588 18330 2
54.2044 23.2065 22.9624 40030 1
54.7612 23.7075 20.3528 40025 2
57.1633 24.4812 19.6178 18326 1
59.7838 23.0216 22.5546 20148 1
58.7378 26.1905 20.27 19227 1
59.2733 25.4002 22.7145 246 1
59.9932 23.6472 19.8771 199 2
61.7074 25.6891 21.3058 19229 2
62.3579 22.9751 21.9454 19285 2
64.4911 25.2063 22.2768 20106 2
65.8312 26.4724 20.2656 18337 1
64.9651 23.1462 20.4958 18327 1
66.3664 23.0137 23.1624 31002 2
69.2074 23.7824 21.7659 1065 2
67.1812 25.6078 22.2256 19241 1
71.5254 23.1906 19.9751 12457 1
71.2321 25.6797 20.9054 30290 1
73.4622 24.689 21.7054 43162 1
71.3323 24.9782 23.2806 19299 1
73.5969 23.643 24.1805 20157 1
20.6673 28.0951 21.5559 1933 2
21.8559 30.8076 20.8761 1071 2
18.1849 29.7769 21.6522 63536 2
20.6908 30.1788 23.8055 63546 2
23.2114 28.4635 22.041 63545 1
25.1544 29.603 20.8589 1023 2
25.3885 28.6921 23.297 40916 1
23.5789 30.827 23.7205 1018 2
27.7952 28.24 22.1896 39954 2
30.1842 29.0396 20.4428 983 1
28.5763 30.8738 21.4035 40965 1
31.3707 28.2207 22.4868 41845 2
33.1115 29.5648 20.1888 41885 2
33.2703 30.0541 22.9618 1033 1
35.3078 30.9976 23.535 2010 1
35.5334 28.59 21.7275 40926 2
37.6153 30.0273 20.5579 2000 1
38.2023 28.4165 22.1626 1083 1
37.6942 27.5257 19.8693 2779 1
42.3698 27.0861 22.2732 41842 2
40.4649 29.0507 20.6486 1907 2
43.1854 29.625 20.1416 2001 2
43.1195 30.2795 23.1687 43703 2
47.7328 26.951 22.9256 40935 2
44.7692 28.4113 21.7032 40985 1
45.9637 31.1832 21.4697 41032 2
47.1425 28.4202 20.7831 41894 1
47.9166 29.7243 22.9512 1954 1
52.2387 27.091 20.3906 1165 2
48.7873 30.6166 19.969 41898 2
49.9216 28.4766 21.1832 42717 1
50.1019 30.6173 22.4731 42715 1
52.0486 28.9379 22.8512 40996 1
52.1642 30.8626 20.5109 1163 2
55.506 26.7837 20.357 19382 2
54.1218 28.8845 21.6916 1105 1
55.3828 30.4901 20.1565 248 2
56.0451 29.114 23.5993 1973 2
57.7118 27.7163 22.1984 19231 2
59.3011 30.106 23.1891 200 2
60.4691 28.5201 20.7893 2792 2
58.1617 30.2641 20.6796 1109 1
60.613 27.5009 23.2389 19243 1
63.647 28.0132 20.752 19242 2
65.457 30.9924 22.1857 19289 2
62.5396 30.0481 22.9992 20214 2
63.4632 30.6345 20.0085 18380 1
68.6394 26.6644 20.0853 30998 2
69.4954 26.9862 22.9507 19186 2
66.2354 28.1024 22.4567 12515 2
68.7867 29.1367 21.1811 43818 1
68.3366 30.4165 23.6216 20158 2
66.5064 29.0913 19.5044 30833 2
72.912 27.0199 22.7305 1076 2
70.9036 29.4148 23.0136 19294 1
73.5815 30.1539 22.521 19300 2
73.2258 30.6304 19.9 19297 1
74.0914 28.4349 20.2438 43804 1
71.2718 28.3657 20.3434 18339 2
19.2364 32.4429 21.83 1017 2
21.5844 34.0942 20.1806 1060 2
20.6207 35.0298 22.6677 63543 1
18.263 34.9145 21.2287 1121 1
21.9404 32.969 22.7024 1980 1
24.3572 32.8206 21.1931 63681 2
23.5816 35.4411 22.1351 1069 1
25.2133 35.2384 20.3107 43702 1
26.2277 35.1565 23.0422 1075 2
26.6154 31.5424 23.0495 20152 2
26.923 33.5881 20.932 1070 1
28.8002 33.2809 22.4261 1989 1
31.056 34.8495 21.4892 1029 2
24.1199 74.7534 64.4145 11708 2
31.3095 31.5398 21.8313 1940 2
33.5087 33.5251 22.8633 24974 2
32.9769 33.2027 20.2668 984 1
35.1619 31.5786 20.8828 41893 2
38.3108 31.895 22.1657 1199 2
36.0922 34.4571 21.4949 41937 2
38.464 34.1551 20.3871 19202 1
38.7941 34.6225 23.5158 20283 2
41.0502 31.453 21.7527 42701 1
40.5173 33.7412 21.8081 2002 1
43.2038 32.7373 20.9389 41848 2
42.7115 35.2464 22.4493 2990 2
40.8933 34.8583 19.5503 41024 2
43.5224 35.4554 19.8205 1159 1
17.6684 65.978 71.3346 13287 1
46.1178 34.5489 21.5104 2067 2
48.132 35.4854 23.4035 236 1
48.2892 32.5662 22.4884 237 2
49.0023 34.8406 21.3862 41035 1
51.2631 33.3097 22.4152 2022 2
51.4435 35.6487 20.2519 1155 2
50.325 33.0308 19.9415 291 1
53.6375 31.2764 23.1167 1164 2
53.2261 35.563 22.2729 1208 1
56.952 31.8109 22.4721 2077 2
55.0385 33.9808 23.453 249 1
56.8308 34.5653 21.6825 19334 1
54.3347 33.4693 20.9354 20251 2
60.8169 31.9028 20.9483 1112 2
59.2022 33.4684 22.6451 19233 1
61.024 34.5575 21.3377 43165 1
59.1889 35.3931 20.0305 1119 1
57.969 32.9371 19.8654 241 2
63.6628 33.4168 19.7707 19232 2
62.0693 35.3586 23.3722 20213 1
62.8887 32.998 22.4939 19341 1
65.0495 33.9328 22.5213 19339 1
65.7691 31.6094 19.6591 19288 1
68.1448 31.439 20.9268 20162 1
67.2398 33.8794 20.3509 19349 2
69.53 33.642 22.7126 19295 2
67.1748 32.8235 22.9892 19293 1
70.8781 31.325 21.024 19246 2
71.0058 34.3381 20.4601 25899 1
72.6409 33.6669 22.3617 19301 2
18.0735 53.0953 27.5221 63047 2
20.113 36.4572 20.6745 63542 1
18.5102 37.3174 22.8073 63539 2
21.8362 37.6208 22.8101 1979 2
17.8057 38.376 20.0772 63669 1
22.9611 36.7769 19.6588 1988 2
24.99 37.9145 21.5766 2036 2
22.4649 39.2154 20.6352 2045 1
23.6434 39.6445 23.6738 2039 1
29.1772 35.7017 23.4778 1074 2
27.8057 36.1463 20.4704 41015 2
30.0106 38.0113 20.8936 1028 2
27.2905 39.1981 19.6941 41016 2
27.6935 38.2795 23.0832 1122 2
33.7533 36.4969 21.6657 2829 2
31.3711 37.409 23.0123 1079 1
35.3034 38.831 21.7632 1998 2
32.6169 39.293 21.7992 41941 1
50.431 61.5946 19.6724 530 1
37.7228 36.7328 20.8974 41068 2
40.3772 39.5223 22.3759 41984 2
40.2683 36.61 21.837 40988 1
42.4782 37.9785 20.7307 1204 2
45.0805 38.9947 23.2683 41031 1
45.411 37.3375 21.0564 286 2
47.8923 38.1724 22.663 330 2
48.2741 36.8049 19.6864 40108 2
50.6857 36.4876 23.0962 1162 2
49.9807 38.6115 21.2592 290 1
52.6685 38.3997 21.3383 18473 2
56.0069 36.412 23.3626 19276 1
55.2251 36.575 20.8753 20297 2
54.8898 38.9285 22.8096 388 1
57.4691 38.7386 21.8975 18430 2
58.9244 36.3468 22.2994 2121 2
61.3891 37.7532 21.8794 19286 2
61.697 40.0694 20.2367 18379 1
17.6752 61.0561 62.1344 11414 1
36.6221 74.7715 28.5377 23876 2
63.197 35.6266 21.2202 19236 1
65.4548 35.7466 20.7085 20215 1
64.4248 36.9046 23.0486 19281 2
64.0918 38.6155 20.322 18433 2
67.1539 35.7743 23.2243 19291 2
66.3757 39.8698 22.8825 20305 2
66.6293 37.7065 21.3148 163 1
69.1434 36.3646 21.1145 18437 2
68.6318 39.3407 20.37 18439 2
68.511 38.2736 22.8571 19340 1
71.5022 73.4994 74.2569 25981 2
72.2689 36.8776 21.9969 19352 2
70.8379 39.172 22.0971 20353 1
71.1649 38.383 19.7468 18443 1
69.9843 18.2366 22.7038 38366 1
23.3616 18.1498 39.7147 5506 1
74.9749 38.0694 21.9103 19298 1
19.9859 40.1443 21.786 63537 2
20.8069 44.2095 19.8872 48570 2
18.5027 42.3029 21.7548 63648 1
20.8641 43.1691 22.7573 63528 2
18.0622 43.6205 19.7266 63651 1
22.6114 41.277 22.114 21093 1
24.9595 40.9895 20.5382 41066 2
23.5743 43.7334 21.3493 63650 2
26.1526 43.064 22.054 2969 1
25.9893 40.8116 23.4507 2037 2
30.2654 40.0677 23.1983 25055 2
28.3959 41.2755 21.2273 43701 2
28.2776 44.077 21.7327 2049 1
48.2469 18.1514 61.8915 145 2
31.2009 43.1062 22.1328 2090 2
31.0407 40.8162 19.9578 41883 2
32.2356 43.9162 19.5242 24950 1
33.9409 41.6568 21.2627 2051 2
35.4205 44.1274 19.6928 41070 2
37.8834 40.1009 20.4886 41072 2
38.3171 41.7212 22.4961 1202 1
37.96 42.8954 20.2165 42033 1
36.716 44.0471 22.6173 41939 2
42.9777 40.1372 23.187 25047 1
40.5389 40.1635 19.6784 42706 1
40.631 42.824 20.8778 3133 2
42.4564 40.7702 20.7727 1200 1
43.8286 42.7339 22.5261 1251 2
43.3208 43.8221 19.6619 1249 1
47.8353 40.0696 20.1841 41038 2
45.0465 40.1743 21.2136 25049 1
46.7136 41.0813 23.1581 2119 2
46.8057 44.0344 22.9338 1253 2
45.9905 42.5722 20.4428 1254 2
49.0561 43.4957 20.8408 340 2
49.2795 40.9677 22.4243 2113 1
51.1927 41.0396 20.6226 289 2
52.1184 43.474 22.2613 25040 2
52.9735 40.9747 22.9111 20299 1
54.9599 40.6096 20.625 18427 2
54.5872 42.7478 22.3194 39218 1
55.9736 43.7567 20.1027 1350 2
57.2091 42.0328 22.6234 19337 2
53.4523 42.86 19.9174 1307 1
59.8914 40.4699 22.0987 20206 2
60.4638 42.3524 19.9794 18479 1
60.3082 43.2764 22.9901 20298 2
58.5843 43.4045 20.7361 1255 1
57.946 40.9172 19.5361 19282 2
63.2922 40.3086 22.9638 19338 2
62.4781 42.2508 21.5576 18435 1
65.0056 41.4467 20.8768 19384 1
65.4058 43.1234 22.9289 21284 2
62.9062 44.4093 22.7046 20304 1
68.8736 40.9625 22.9601 19389 1
67.441 41.8695 21.1848 19396 1
69.7988 43.537 21.4189 19436 2
73.2664 40.1066 20.9745 20361 2
71.38 41.4605 22.4017 2141 1
73.0456 43.4609 20.4909 18488 2
73.9251 42.4328 23.3804 19447 2
18.3302 45.1798 22.0951 63282 2
21.6761 46.4182 21.8894 53468 2
19.3168 48.0845 21.6094 63274 2
66.7249 74.9472 58.0397 27996 1
26.0054 45.8224 21.2104 41064 2
23.8799 45.6753 23.4658 2088 1
23.9194 47.7575 22.1584 63527 1
25.8227 48.661 20.609 2085 2
19.9167 29.6903 19.3909 72807 1
28.3207 47.2573 22.6152 24951 2
29.8273 45.6425 20.4689 41946 2
28.1802 47.4561 19.6623 41062 1
31.0814 48.1085 21.7869 2922 1
31.4897 45.9489 22.6216 2046 1
33.7579 44.8242 21.9946 2157 2
32.3356 46.5675 20.4324 41115 1
34.6953 46.9109 19.7753 2092 1
33.8132 47.8918 22.4536 2095 2
38.7571 45.6284 20.9157 41124 2
38.3252 48.2242 22.0055 2155 1
36.31 46.8056 21.5967 41990 1
39.5548 44.2902 23.22 2156 1
17.782 67.9397 23.5697 63016 1
42.0547 45.2241 21.8999 1293 2
41.0527 48.1162 22.324 1294 2
17.8521 50.4246 26.7328 63061 1
44.3047 47.6952 21.9439 2169 2
17.749 36.0345 27.7226 55152 2
44.6668 45.3235 23.0017 2162 1
45.2256 45.2905 20.4886 1257 1
47.542 46.0127 20.6718 381 1
47.4941 48.4465 21.7165 41079 2
48.5478 46.3099 23.0272 385 1
50.3374 48.1887 23.3868 394 1
50.5228 46.1681 21.1865 1305 2
53.0202 45.6391 20.4406 1345 1
53.1305 48.105 22.2186 19428 2
54.4784 45.4161 22.7605 1306 2
55.5291 47.1776 20.405 19426 2
56.5573 47.9537 23.4365 21280 2
57.5714 45.0331 22.7877 1303 2
61.1086 45.1334 20.9477 20338 2
59.755 47.1797 23.0386 2172 2
58.4369 46.0893 19.9787 20346 2
57.9771 48.4915 21.2461 19470 1
64.0443 44.4002 20.2029 19386 2
65.1731 45.7804 22.4255 25875 1
63.0236 47.2777 22.3607 18534 2
65.9715 47.4686 20.566 20344 2
58.1457 19.9296 19.5615 38509 2
67.0165 44.3777 20.4161 21192 2
67.855 46.0002 22.8664 19439 2
69.3033 47.0271 20.4094 18476 2
68.1747 48.8286 22.1654 25042 1
71.3698 45.592 19.6602 18542 1
70.6411 48.433 23.0931 2268 2
72.0237 45.8445 22.4678 20313 2
72.2212 48.311 20.3122 19445 2
74.6526 46.4679 20.8211 20354 2
73.8054 48.0583 22.9549 25871 1
20.9965 50.2527 22.2934 63632 2
20.9781 51.7023 20.1745 53552 2
18.2262 51.0338 21.5931 54461 1
22.0908 53.0853 23.1946 63481 2
23.4743 52.1869 20.8528 63235 1
22.6629 49.0401 19.8567 48669 2
25.9928 51.8226 20.0415 2084 2
24.2124 50.2978 22.9089 63483 2
29.0269 49.4128 21.019 2040 1
27.2968 50.4684 22.769 2089 2
29.355 51.9397 20.1854 40239 2
29.6922 52.6356 23.4266 2195 2
30.3697 49.7156 23.7839 2973 2
27.7147 53.0713 21.9211 3022 1
31.2915 50.5289 20.9783 40237 1
34.9061 51.572 20.1571 41120 1
33.1944 51.3509 22.5402 41114 2
33.5202 49.3616 19.693 2048 2
36.6103 49.1553 19.7248 41077 2
35.9602 50.0693 22.3401 378 2
38.9337 50.7094 21.5325 18505 2
41.8644 51.1869 21.6334 431 2
43.9259 53.0603 22.6547 1386 1
42.6746 49.4294 19.5718 2207 2
45.1425 50.5989 21.0311 383 2
46.3031 52.6577 22.5488 438 1
45.9994 52.8611 19.7701 432 1
50.5298 49.2294 21.1351 1351 1
48.5131 51.4009 21.352 3092 2
52.578 50.3255 20.2322 436 1
51.6754 51.0152 22.7513 25001 2
55.4044 50.4291 21.7965 1268 2
53.42 52.3954 21.5199 1352 1
56.539 51.7534 19.6697 19473 1
55.0037 52.8533 23.3049 19469 1
60.5841 48.7782 20.1346 19481 2
57.3571 52.6123 22.127 1267 1
58.0779 50.2409 23.2814 1310 1
58.7521 50.7788 21.0414 3150 1
61.0577 49.9665 22.9297 20342 2
61.5435 52.1935 21.0041 20390 2
59.395 52.1723 23.4178 19379 1
65.9676 50.1172 21.8038 20397 1
63.5194 49.8561 20.7148 19483 2
63.7672 50.5771 23.735 20392 2
65.2726 52.8354 22.3873 19486 2
67.4241 52.356 19.8969 19482 2
70.1299 50.161 21.0112 20352 1
68.3408 51.564 22.6069 19488 2
68.0972 49.6234 19.8266 25893 1
70.9759 52.8165 21.1968 19489 2
74.8137 49.5224 20.863 19492 1
72.741 50.6382 22.466 19532 2
74.742 56.3397 27.803 21297 2
73.9855 74.171 71.2944 28319 2
19.0951 53.5678 22.0377 63500 2
20.778 55.8905 22.7924 48680 2
20.173 57.1507 20.2021 63468 2
74.8034 59.4918 27.4447 21399 2
22.9103 54.9562 20.8752 63634 2
25.1476 56.1721 22.416 53557 1
25.1376 53.2329 22.7665 63188 2
27.4097 57.7697 22.6116 5799 2
26.7039 55.1764 20.8462 63479 2
29.5198 55.5618 22.2343 24954 2
31.3724 53.5495 21.5091 41977 1
33.8562 53.7509 20.7874 41981 1
32.5625 56.1931 21.3541 43152 2
34.4984 54.1114 23.3365 41170 2
35.4312 55.9414 20.7711 63057 2
36.6761 52.9706 21.5508 428 2
39.1885 53.5254 22.4465 477 1
37.3409 55.6818 23.1795 376 2
38.349 55.2439 19.9786 1338 2
40.2668 53.0788 20.3207 25067 1
43.0467 53.0167 19.9113 435 2
41.6361 53.6202 22.4146 19545 1
42.9774 55.6557 22.6948 481 1
41.2054 55.771 20.5294 429 2
44.9623 55.1757 20.6002 479 2
46.7653 56.9622 22.2109 1393 1
48.1906 54.4811 21.5074 1348 2
50.9973 53.1743 20.5226 1392 2
50.6642 53.8104 23.2765 19565 1
50.7488 55.9712 21.624 491 1
52.7178 54.5749 22.1285 1399 1
55.3575 54.3968 20.7664 20435 2
56.8894 55.1602 23.2322 25887 2
55.4207 57.4156 19.8975 20473 2
53.3165 57.4945 21.9231 1398 2
58.9912 53.0146 20.5377 19517 1
60.7493 54.8024 20.2498 18630 1
59.5107 54.3752 22.5276 25865 1
58.2113 55.8235 20.5224 1401 2
61.5289 55.5151 22.3102 19572 1
59.4188 57.0317 23.5495 444 2
63.571 55.0175 20.4591 19570 2
63.679 55.1002 23.2325 19520 1
64.8741 57.5525 20.4779 19577 1
65.7809 55.9852 22.0312 19585 1
68.4381 18.3894 47.1998 7630 1
68.5218 54.6721 21.726 19524 2
69.2555 57.6303 20.1241 19586 2
68.5623 56.7125 23.9642 19626 2
70.9269 55.827 20.6208 19584 1
73.0558 54.6392 21.5799 19533 1
73.5232 56.838 20.221 19535 2
71.5164 57.554 22.469 20485 2
71.0925 54.6991 23.4628 20444 2
17.6783 57.5734 22.3489 63187 2
19.0131 61.1087 21.1563 53700 2
20.661 59.0768 22.4574 63438 1
63.4664 18.1707 53.6583 7577 1
22.0967 61.2956 21.6733 63410 1
25.6138 58.168 20.5903 63184 1
25.686 59.7577 22.4862 63474 1
23.1979 58.2673 21.7272 63433 2
24.6867 61.1116 20.2562 63588 2
38.9052 57.727 21.6385 1385 2
36.3317 58.4137 22.1055 19499 2
38.6442 60.6632 20.6954 2288 2
43.3588 57.4009 20.5124 19607 1
39.6463 59.9672 23.2881 2286 1
41.7075 58.1753 22.5393 24937 2
41.068 60.6875 21.4397 526 1
43.6506 60.2196 21.2747 1440 2
40.9663 58.7542 19.4104 476 2
44.508 57.6737 22.5335 1387 1
45.6171 58.5818 20.4751 1391 1
46.7926 59.7905 23.0389 1445 2
46.2517 61.0532 20.841 525 1
48.4287 60.0832 20.2991 1395 1
49.3348 58.0528 22.5851 1447 2
50.2625 60.4374 21.832 19616 1
51.3959 58.58 20.1067 534 2
49.2777 60.4976 24.0538 1444 1
54.3229 59.9456 22.8735 2342 1
56.4589 60.7615 21.8795 25862 1
56.0257 57.9066 23.1091 448 2
54.5002 60.0289 19.9582 533 2
60.9939 57.5869 20.4518 19575 2
58.0962 58.6688 21.2993 19618 2
60.2942 60.5134 20.3275 19621 1
60.4253 59.4156 22.6875 20476 1
62.4669 60.9546 22.1084 18729 2
63.2905 57.7352 22.4028 19574 2
63.1073 59.2091 19.8057 19573 1
65.3322 60.0979 20.5984 1455 1
67.237 58.4336 21.8463 1420 2
66.3866 74.8607 54.0415 27161 1
68.0443 60.9763 19.6251 546 2
69.6451 60.1978 22.214 20487 2
67.257 61.3765 22.5319 19625 1
71.8212 62.114 22.2608 19632 1
74.6092 58.2015 22.6821 19593 2
71.5059 59.6395 19.7239 25902 2
73.4789 60.4595 21.6626 18692 1
20.3745 63.6609 21.4523 54635 2
18.5847 65.5495 20.263 50596 1
19.2929 66.2949 22.539 54678 1
18.275 63.1939 19.6173 53783 1
21.7029 65.1909 23.7702 63177 2
22.1534 62.5676 19.4415 63179 1
23.1689 62.9439 22.9402 63141 1
23.6218 64.5269 20.7596 63411 2
25.9493 62.4201 22.8965 63144 2
39.1841 62.6903 23.2483 2328 2
43.0228 63.2207 21.7275 572 1
41.9615 65.0034 23.6187 1482 2
40.7987 63.2825 20.2911 19546 2
45.2826 62.4792 23.1345 1442 2
44.2724 65.5548 21.4331 18753 2
46.4251 63.7939 20.8099 579 1
47.4161 65.3179 22.9445 578 2
45.0192 65.0375 24.0762 18756 1
52.5761 61.6888 21.251 19660 2
48.6425 62.3899 22.0028 1446 2
50.9949 62.5188 23.684 25036 1
50.5104 64.1553 20.441 1487 2
49.9788 64.7783 23.2851 2338 1
56.3348 62.0498 24.0765 20518 1
53.0288 64.6527 22.589 2381 2
54.8491 62.7012 22.4984 19665 1
54.97 65.4263 19.7312 583 2
56.8263 64.6532 22.5474 2430 2
55.6023 62.5715 20.3378 18770 1
58.7433 61.7272 22.3202 20521 2
58.0722 63.6865 19.8168 1453 2
60.6585 62.8855 20.839 19622 1
59.8987 65.3317 21.3674 25882 2
65.1531 62.9144 20.7616 18779 2
64.8398 65.1548 22.5059 19624 1
62.1643 63.6236 23.1254 19670 2
64.7551 62.5698 23.4847 25860 1
62.7536 64.704 20.7187 25901 1
65.3798 66.0273 19.9679 19676 2
67.9233 63.5934 20.0785 19629 1
68.5539 65.7322 22.0212 18736 2
70.2587 62.3661 20.5085 18742 1
69.2604 62.8944 22.5821 20533 1
55.5047 18.246 33.6311 20408 1
66.7301 63.9405 23.2081 2354 1
72.5352 62.5833 19.4051 19589 1
72.669 64.3459 21.0519 1461 1
74.7179 63.0188 22.1806 19679 2
73.9994 66.1044 22.9723 21693 2
71.2247 64.4674 23.693 20527 2
74.8604 41.3521 66.0196 27832 1
21.5076 67.0216 20.9493 48693 2
18.9472 68.501 21.3435 63142 1
21.1726 69.9031 21.3069 63128 1
18.8342 70.5701 19.6142 54856 2
19.0849 70.6457 22.957 54810 2
21.0234 68.4127 23.6998 54677 2
23.6578 66.6837 22.5998 63140 1
23.4143 69.0571 22.5723 55682 1
24.8167 67.953 20.3341 54813 2
25.7607 67.9978 24.0676 63139 2
44.2185 67.5799 23.9068 2420 2
46.8868 68.1224 21.8397 1483 2
48.8456 67.8284 23.5661 1528 1
49.4615 66.408 21.3923 19699 1
52.0739 66.7316 20.2552 632 2
50.0349 69.1284 21.3015 1531 2
51.4173 67.1958 23.3716 1488 2
53.3233 69.6091 21.5019 19711 2
54.7725 68.0146 19.6822 1536 1
56.585 69.6572 20.6781 25821 2
54.9086 67.1614 22.3636 1533 2
55.9121 69.8753 23.1642 2431 1
57.4817 66.9202 20.4447 19710 2
61.5309 69.6977 21.3231 19667 2
58.6796 70.0893 22.3484 2432 1
59.5409 68.0847 21.4892 2425 1
57.7558 67.767 23.6153 2439 2
60.3695 68.7897 23.9432 25855 1
64.1915 68.8941 20.9607 19672 2
62.1798 66.8444 22.597 19718 2
65.8386 69.2512 24.0122 21735 1
66.2983 67.4596 22.0533 25856 1
68.5992 68.5442 22.378 25881 1
66.7514 70.3114 21.4281 20824 2
70.1639 67.7569 20.3203 21691 1
70.7198 69.8944 23.4335 25816 1
69.6291 70.1325 21.0442 21740 1
74.8687 69.169 49.1396 26185 2
71.334 66.4068 21.8486 2396 1
72.6273 68.932 21.5151 2592 2
74.9238 68.4985 23.3341 21748 1
17.5855 38.5264 25.8631 63314 2
20.7449 72.8615 21.4137 63116 2
34.3412 74.9906 51.6675 8994 1
22.4797 71.1922 23.0515 63124 1
25.1648 70.8894 23.0106 50703 1
23.7492 71.066 20.309 63014 2
26.4218 73.3996 22.0296 3587 2
23.6455 73.1413 22.2987 3538 1
17.5986 45.9053 59.2241 62173 1
66.5101 18.236 56.6197 28140 2
28.6653 73.6916 23.5035 63178 1
27.4896 71.3692 23.5983 1383 1
56.8486 72.3955 22.5961 22631 2
59.1352 71.9646 20.4621 21778 2
59.238 73.9792 22.4425 12850 1
60.5772 71.7059 23.5168 20618 2
61.4175 74.0329 21.4041 25814 1
59.9088 18.457 22.4339 19184 2
17.8997 25.2975 72.4556 49841 1
63.4728 72.1685 21.8232 21788 2
66.2115 73.5445 21.9942 21781 2
37.0357 18.4864 51.9797 18954 2
68.6748 72.0705 23.4386 21737 2
69.5983 73.0965 20.5116 21745 2
73.6978 71.1507 20.4654 21785 1
71.6326 71.46 21.6166 18741 1
74.0483 73.1739 22.4396 20834 2
71.2407 73.404 23.5257 22688 2
42.0675 74.9735 75.0446 13399 1
17.9446 19.8944 27.6177 59349 2
18.4377 21.4185 24.1415 20053 1
21.62 22.0083 25.6952 25064 1
20.1196 19.5084 25.1591 1881 2
19.1699 22.4898 26.5131 20051 2
24.6048 21.3849 23.5813 1848 1
23.0726 19.8411 25.7703 20009 2
25.4386 18.8243 27.4014 784 2
26.4234 21.2213 27.7148 2772 1
27.0175 20.4426 25.0467 2717 2
28.659 19.0414 27.2911 1847 2
28.5362 21.9161 27.1631 2776 1
30.4765 20.8621 25.7471 1891 2
32.7698 19.2156 24.2673 23637 2
34.0784 20.2545 26.4349 987 1
34.6617 21.8803 24.5766 2726 1
36.3146 18.5776 26.4306 3659 1
35.6202 19.6863 24.1188 20120 1
38.3149 19.4144 24.6466 21910 2
39.0876 22.149 24.4424 3657 1
36.6799 21.3952 26.3573 1900 2
41.1197 20.6629 25.5368 22582 2
44.0934 20.4916 25.4436 21871 1
43.3507 22.4188 24.2616 22532 1
45.9219 19.9275 23.6116 22576 2
46.3194 20.704 26.4961 12875 1
48.6615 19.9511 25.1047 23264 2
45.5341 18.0587 56.2767 9146 2
48.5595 22.2061 27.0881 2736 2
50.5957 21.6726 25.0137 21895 1
51.6573 18.8441 25.557 3670 2
51.7794 22.2462 27.4411 22570 2
50.1829 19.962 27.3948 22528 1
56.2818 22.1439 23.8589 23172 1
56.1038 19.8411 24.3398 23127 1
54.6201 20.4968 27.1078 22564 2
53.3035 21.1555 24.5326 2785 2
57.0709 21.2173 26.0049 23632 1
59.0084 20.7312 23.9006 31285 2
58.1552 18.6283 26.0138 11602 2
60.8107 19.4133 25.3792 20993 1
59.4177 21.0075 27.2751 20141 2
61.1666 21.9148 24.6349 20104 1
62.5137 20.7042 26.959 25850 2
65.0724 20.5868 25.2019 11550 2
64.2368 18.5531 27.397 31025 1
67.6943 18.4757 24.5689 30802 2
69.0897 19.4286 26.8422 1659 1
68.0053 21.6886 25.4771 12867 2
66.5718 19.6037 27.7144 30814 2
66.2424 22.1793 27.633 12415 1
70.4777 21.5466 26.9338 11516 1
70.797 19.4801 24.8437 22613 2
74.6924 19.9504 27.4762 12412 1
73.692 20.8309 24.903 30808 2
71.6383 18.6625 27.4429 12506 1
72.6856 21.16 27.636 12890 1
74.8682 22.4072 27.303 12481 1
19.559 26.2567 23.5728 1883 2
17.9267 24.4483 24.9055 1835 1
20.0647 23.498 24.2839 1887 1
20.0642 25.1778 26.2285 1930 1
22.0138 26.3763 27.3945 2818 1
21.9031 23.6274 27.9575 1841 2
24.6903 22.5989 26.0078 24990 2
26.2091 23.279 24.0197 1884 1
25.2622 26.2268 24.1437 1025 2
22.4666 24.5291 25.1475 1886 2
24.5488 26.3735 27.0761 976 2
27.1135 24.506 26.4317 1889 2
28.4678 22.7846 24.5278 936 1
28.424 25.4902 23.8809 1944 2
29.8394 23.9619 26.0416 2771 1
29.6688 26.0776 27.7736 1892 2
30.7404 23.293 23.7602 25026 1
32.4328 22.9408 25.8786 2775 2
31.6732 26.0444 25.5241 1946 2
34.6396 24.7503 26.0022 2778 1
39.877 26.8289 23.9269 1958 2
37.1817 24.32 24.952 25025 2
38.8913 26.223 26.5104 4664 2
36.9673 24.4481 27.5266 5526 1
39.5177 22.8423 27.0629 3662 2
37.0998 26.8783 24.1787 1951 1
42.9744 22.6069 26.9596 2784 2
41.1686 24.2015 25.0857 23152 2
42.3051 25.6439 27.3546 3759 2
44.0999 25.407 24.3974 2837 2
45.8589 22.9966 25.3931 4627 2
44.8014 24.7595 27.2176 21900 1
47.1204 26.0313 25.9825 2786 2
48.8725 24.0378 24.6367 750 2
49.4981 26.8806 25.3562 2027 1
52.3671 24.4342 24.8219 2024 2
50.355 25.1458 27.1384 1107 2
53.2571 24.6496 27.3164 21056 1
55.4996 26.3883 25.4211 40027 2
55.2631 23.4166 26.0987 30857 2
57.4557 24.9729 27.1853 2028 1
58.4427 26.7213 25.0313 19234 2
61.3797 24.7371 24.3439 713 2
58.556 23.4225 25.1734 20098 2
60.172 25.3751 26.6757 20201 1
61.2794 23.2208 26.8065 20096 1
63.646 23.019 24.5951 20100 2
63.0122 25.8049 26.8342 19684 2
65.6288 25.8271 24.8453 25879 2
63.8281 23.3089 27.8182 25880 2
65.9796 23.5317 25.8533 12414 1
69.6602 24.1653 27.3357 20160 1
68.5178 24.8718 24.9032 19196 2
67.0126 24.9084 27.8981 12419 2
70.7421 22.6913 24.4132 22672 2
74.2533 26.0851 25.9033 20163 2
72.3713 23.6767 26.6111 1651 2
71.0593 26.3929 25.8431 20113 2
18.4895 28.7984 24.1456 63548 1
20.085 27.9457 26.5938 2763 2
18.9883 30.7287 26.5871 1936 2
22.0034 30.2033 25.935 1929 1
22.5006 27.7378 24.6716 1885 2
24.8006 29.4559 26.063 1941 2
29.6977 30.6882 24.1983 1947 2
27.5571 27.4901 26.4086 2769 2
27.3077 29.4708 24.5939 25059 1
27.8122 30.6264 26.9017 2817 2
29.6579 27.7962 24.4437 1949 1
30.1919 28.9108 26.861 2864 2
34.3269 27.2116 24.2327 25028 2
32.0738 29.1131 24.954 2872 1
34.4111 29.6796 25.5934 24982 1
33.1838 28.1702 27.0871 24984 1
32.4288 30.7543 27.7503 1993 2
35.8551 27.1517 27.0182 2828 2
37.0552 29.341 24.8991 2831 2
39.4393 28.7877 26.0861 2873 1
38.2419 30.1652 27.6725 2862 1
40.1965 29.8819 23.9251 40975 2
43.0713 28.9569 27.689 2789 1
42.399 28.0745 25.4154 2069 2
44.0868 30.62 25.956 3713 1
41.1506 30.9503 26.9866 2054 2
44.6989 27.0686 26.9502 2006 1
46.3224 31.0382 24.182 2942 1
45.3587 28.4732 24.3944 41849 2
48.0886 29.2578 25.7341 2072 2
45.8007 29.1144 27.9935 2984 2
51.7933 27.5358 24.8425 42770 1
49.8648 28.5386 23.8175 2026 1
48.7527 27.6042 27.8324 2893 1
50.5638 28.7718 26.55 3666 1
51.1628 30.9405 24.8953 25056 2
52.1449 30.1323 27.6005 1156 1
52.5099 27.0852 27.5036 2898 2
53.8112 29.303 25.5174 23129 2
55.7743 28.2269 27.3791 2071 1
54.4215 30.6768 27.9184 2029 1
57.7786 29.6558 26.0497 20145 2
60.8529 28.9884 25.5839 25878 2
63.1653 27.3121 24.1304 20151 2
63.2992 28.6015 26.7497 20209 1
65.6006 27.3664 27.6736 20207 2
65.283 29.4808 25.1243 21002 2
62.8372 30.9685 26.0877 20257 1
68.8401 27.117 27.434 21054 2
67.6483 27.6592 25.0712 20216 1
67.9388 29.7752 26.9678 21044 2
70.001 28.8526 25.3685 20159 1
74.9205 28.1601 24.1302 12863 1
70.9168 29.2352 27.4997 20149 1
72.6962 28.7442 25.2035 18336 1
72.6206 30.8757 26.0761 19249 1
17.8608 31.6383 24.1718 53355 1
18.3515 34.5421 23.8676 2808 1
20.2352 33.1063 24.9939 1934 2
21.4081 35.074 27.6046 1977 2
21.2009 31.808 27.8396 1982 1
19.2507 33.3442 27.7141 2811 1
24.2845 33.3129 23.8167 1983 1
22.7621 35.2525 24.7497 1981 2
23.2416 32.5944 26.2667 2863 2
25.9639 34.7734 25.8239 2042 2
25.9613 32.0706 25.5478 1986 1
30.7614 33.3528 24.1188 2916 1
28.0748 32.8555 24.813 1938 1
30.0676 31.977 26.6169 3749 1
29.4051 34.6591 26.2887 1990 2
32.7013 31.7163 24.9356 1950 2
31.9767 33.9124 27.1719 2908 2
34.5342 33.9475 25.3317 3754 1
34.329 32.9661 27.6195 21059 1
32.3369 35.6204 24.6849 1997 2
36.2427 33.1457 23.8803 1080 1
35.5282 31.8422 25.8185 4713 1
38.4348 32.049 25.6854 41895 2
37.1291 34.6416 26.2759 2931 2
40.2889 34.694 26.438 284 2
41.2389 32.5812 24.2801 2004 2
42.552 35.0973 24.9889 2944 1
43.1592 33.1812 26.7031 1149 2
44.479 32.9595 23.8598 43700 2
46.3101 31.9775 26.8507 24957 2
47.0401 33.8152 24.766 1209 1
45.3835 34.597 26.2229 21169 1
48.0012 34.8826 27.4966 2953 2
48.532 31.8973 25.0522 2023 1
49.7539 34.1579 25.1728 2117 2
49.8402 31.9206 27.4986 1160 2
52.8346 34.2172 24.916 20248 2
51.6652 34.6175 27.8833 21177 2
52.6836 32.2278 26.5952 2902 1
56.7962 31.2726 27.8234 21089 1
55.5655 31.9018 25.4959 19326 2
55.4448 34.9315 25.5531 2123 1
54.8628 33.5967 28.1007 21045 2
57.4027 34.4356 24.025 19235 1
59.8333 31.7139 26.9615 19238 2
61.0928 32.4985 24.4783 20212 2
57.639 33.8518 26.9409 20255 2
58.3561 32.108 24.7498 18373 1
59.9536 35.3427 25.0162 20155 2
60.841 34.2679 27.1246 25877 1
64.2678 32.1569 24.3258 20210 1
63.1665 34.6197 25.7193 20256 2
64.7301 32.5295 26.6307 19344 1
65.7873 34.0472 25.1264 18372 1
65.4407 34.9469 27.5168 20302 1
62.5444 32.5822 27.8666 25846 1
66.6657 31.7473 25.1914 20153 1
69.8876 34.5211 26.8293 20211 1
68.3036 33.7064 25.0613 19347 1
70.0266 31.88 26.1763 1129 2
67.6767 35.522 26.5096 20265 1
67.3782 32.8747 27.8666 2915 2
71.4651 31.5351 23.911 19296 1
74.5199 32.2776 24.6492 19346 2
71.9382 34.0742 25.0021 19350 2
73.3496 33.0939 27.0233 21104 1
19.9078 36.3736 25.3747 63540 2
19.8542 38.9636 24.2007 63318 1
74.7958 21.929 29.8032 661 2
73.5252 71.6117 73.1488 15179 2
22.0789 38.3431 25.836 2911 2
23.7815 36.468 26.6346 1072 1
25.104 37.7763 24.7164 1985 2
25.9079 37.8198 27.7929 2047 2
28.6886 37.5197 27.5178 2914 1
27.6058 36.7787 25.4167 2041 1
27.6594 39.6739 25.8346 2918 2
30.2424 37.8056 25.5015 2870 2
34.6025 36.6499 26.619 1996 2
32.8089 39.0792 27.0357 3847 1
33.4991 38.7468 24.4005 20156 2
32.1641 36.7623 27.3706 3807 1
35.4469 39.2165 27.3787 3840 1
37.9139 38.2873 23.3478 2061 2
36.0929 39.0644 25.0761 2052 1
35.7631 36.2387 23.8654 1995 2
37.8466 37.5282 26.4617 20236 2
40.3637 36.8587 24.4768 41994 2
42.9815 37.5933 23.6277 2066 1
43.3832 36.4925 26.8078 4669 2
41.6617 39.5048 25.485 3037 2
44.2914 38.8659 25.7151 2111 1
45.369 36.1698 24.0686 2995 2
46.5741 38.7392 25.119 25017 1
48.2846 36.9199 25.1967 2070 1
46.3073 36.9288 26.8123 2954 1