ITEM: TIMESTEP    
165000     
ITEM: NUMBER OF ATOMS  
77888     
ITEM: BOX BOUNDS pp pp pp
17.607 132.393    
18.0782 131.922    
27.1542 122.846    
ITEM: ATOMS x y z id type
19.6728 20.7866 27.7715 72779 2
19.0019 19.4532 30.1035 1881 2
19.3379 22.4404 30.8789 1887 1
21.9661 19.3272 29.7405 1839 2
21.605 22.4084 29.0808 977 2
25.3696 20.0961 30.6702 22628 1
24.3646 19.941 28.6962 926 1
22.9429 21.4223 30.8879 1848 1
62.7136 67.0286 27.6556 18779 2
30.505 19.9795 29.9459 20062 2
27.3991 20.8171 28.9721 1846 2
29.6915 22.2639 28.6316 1895 1
28.1838 18.3439 28.2127 72824 1
30.1577 22.8784 31.4664 1944 2
74.6491 19.9743 31.822 30810 2
33.3716 20.2635 29.5296 43709 1
34.8893 21.1795 31.4429 2726 1
34.3228 21.7946 27.7802 19151 1
33.976 18.9308 27.4839 24988 2
31.8515 20.83 27.4134 25063 2
36.1099 20.3478 29.0817 1851 2
39.0855 21.016 28.8211 22537 2
37.5339 21.7239 31.1324 1899 2
37.9601 18.5258 30.1638 22536 2
17.606 69.1332 30.3702 55780 1
41.2378 19.4293 30.3957 1854 2
44.1041 18.4856 31.0784 23128 2
41.9011 20.1124 27.9386 43666 1
40.1498 21.7029 31.5343 3657 1
43.5175 20.6354 29.5534 21871 1
39.9213 18.5332 28.353 1904 1
45.1153 19.5295 28.1678 1099 2
47.3874 20.697 28.642 40834 2
46.9512 18.4897 30.6215 22576 2
48.2247 21.902 30.9151 1908 1
45.622 21.0564 31.2616 4627 2
50.4942 19.1008 27.6391 38521 2
49.7314 21.8613 27.9539 40893 1
52.6026 20.0226 30.8423 22574 1
49.8861 19.9516 30.3702 22529 2
52.6093 21.2823 28.1751 38365 2
50.8763 22.7945 30.3686 1110 2
55.4618 18.8411 27.5766 21944 1
54.7663 20.126 29.5893 12513 1
55.3522 21.7205 27.3051 39988 2
56.2548 21.8883 30.1447 13500 1
60.0536 21.8732 28.0407 31298 2
60.1536 18.9031 30.2678 19184 2
59.2286 22.0472 30.7995 31285 2
60.0637 19.3153 27.8047 31004 1
57.5935 20.1363 28.7373 38509 2
64.5367 21.3558 29.7862 21892 2
62.002 20.5328 29.2047 31021 1
64.0443 19.5192 27.9295 30371 1
63.5593 18.615 30.5939 30999 2
17.7099 31.4002 72.8632 49949 2
48.3136 18.5638 73.5419 16028 2
66.3419 19.0689 28.8954 31023 2
69.1936 21.5096 31.063 19245 2
67.2636 21.6791 29.2244 31293 1
69.2055 19.9612 28.7948 30997 1
70.0739 18.6425 30.4282 38366 1
67.021 20.2078 31.2538 20998 1
74.8462 67.9319 48.9772 25357 1
74.35 20.1045 28.6149 31289 2
71.7878 21.008 29.8419 30996 2
73.7208 22.2176 30.9412 12413 2
72.7133 18.5555 30.4887 21403 2
71.158 18.5305 27.5924 30343 2
18.8059 23.7082 28.7058 1928 2
20.6271 25.2751 29.8503 1885 2
20.5625 26.5134 27.6851 970 1
74.8637 67.569 52.1685 8027 2
22.566 26.6771 28.9645 52493 1
24.8665 22.4329 29.2682 25024 2
22.8652 24.5694 28.1891 25062 1
23.3998 24.4746 30.3314 1888 1
25.7538 24.5919 30.4529 1945 1
25.0598 26.3717 28.6184 25061 2
23.2478 26.5793 31.3452 63545 1
27.2556 22.7624 30.8126 1884 1
27.7991 24.2253 28.626 1943 2
30.4356 25.4167 30.1325 40920 2
30.5856 24.6833 27.4261 933 2
32.2242 22.9583 29.3473 989 2
33.5216 25.7234 30.7043 1035 2
33.9682 24.7341 27.6231 1999 2
35.4218 23.6164 29.8656 25027 2
32.1932 27.0779 28.3088 43811 2
36.3794 25.9041 28.0815 40922 1
36.8992 25.6682 30.765 2729 2
37.2283 23.1583 27.6734 40928 2
39.3803 24.0468 30.4482 3770 2
38.8579 25.6402 27.9578 43667 2
39.8428 26.9133 30.65 1958 2
41.786 22.7432 29.3857 40934 2
41.2763 25.2709 28.833 1956 1
42.2676 25.574 30.9063 2782 1
43.7481 24.822 28.555 41801 1
43.8046 23.5234 31.0547 22532 1
45.2273 22.6635 28.8823 43705 2
46.2708 25.5426 27.9395 40939 2
47.6261 25.7039 30.8877 1153 1
44.9288 25.9664 30.4924 2837 2
48.4463 24.0064 29.0927 40989 2
51.7262 24.08 27.8139 19180 2
50.5529 26.1568 29.9022 2020 2
53.6145 22.8737 30.2243 23176 2
53.0768 25.7071 29.5502 23642 1
55.0432 24.3569 28.1948 40025 2
55.01 25.1266 30.8946 40030 1
57.0287 23.9846 31.0552 23172 1
57.2776 26.1643 29.7654 18330 2
57.6756 23.1828 28.441 38629 2
59.5612 24.7312 30.6446 20148 1
60.2233 25.0442 28.3451 199 2
62.6681 22.903 27.4695 30803 1
62.0858 23.3934 29.9517 19285 2
64.3136 24.9813 31.171 20106 2
64.7706 23.7462 29.0738 18327 1
62.6921 26.2248 28.8072 19229 2
65.3428 26.4605 29.1204 18337 1
69.7712 22.3398 28.0282 31019 2
69.1691 24.2963 30.5747 1065 2
66.8626 25.4538 30.4223 19241 1
67.1614 24.0642 27.9655 31294 2
70.3385 25.2079 27.7333 44061 2
66.6248 23.0222 31.2978 31002 2
73.1115 25.357 28.1106 44079 1
71.8593 23.703 29.4461 12457 1
71.2863 25.8724 30.4292 30290 1
73.7172 24.8045 30.3444 43162 1
74.5322 23.0054 28.1879 39972 2
18.7575 26.8494 29.6663 63548 1
18.998 28.9883 28.6599 1933 2
21.3126 30.8005 30.1364 1071 2
18.239 30.3067 31.338 1936 2
20.9281 28.2288 30.7586 63546 2
21.7156 28.9292 27.616 975 2
23.8855 29.0826 29.4734 1023 2
26.3881 30.1058 30.6465 40916 1
25.7009 27.4791 31.3868 1025 2
27.8848 27.1418 29.7083 39954 2
26.3464 28.7618 28.6278 986 1
30.389 29.3883 27.4693 1020 1
28.4474 29.7344 28.839 19240 1
30.1991 28.327 29.7114 983 1
29.8642 27.1415 31.9209 1949 1
28.8079 29.5308 31.6412 1947 2
33.1766 29.4983 28.4638 41885 2
32.2578 28.201 31.2619 41845 2
33.1815 30.5877 30.941 1033 1
35.1218 27.6294 29.487 40926 2
35.5451 30.535 29.9356 41893 2
37.6906 28.0027 28.9412 2779 1
38.2267 30.5561 30.1026 2010 1
37.0012 28.3704 31.1645 1083 1
38.6752 30.265 27.5971 1907 2
35.9547 29.5086 27.3285 2000 1
39.9699 27.9624 28.1889 2836 1
42.4984 27.574 28.9648 41842 2
43.3422 30.7559 29.4961 43703 2
40.7236 30.074 29.9319 40975 2
17.6599 44.043 69.1925 13042 2
44.9904 27.9025 28.7124 40985 1
46.3986 30.4578 28.7244 41032 2
47.8579 27.797 29.4683 40935 2
44.7899 29.2178 31.1699 41849 2
47.7944 30.0481 31.5021 2072 2
49.282 29.9659 29.1351 1954 1
50.6242 28.2824 27.7927 42717 1
50.3912 28.6215 30.6662 2027 1
51.5228 30.9284 28.6046 1163 2
50.1702 31.3535 31.1082 42715 1
52.3504 28.0697 29.3842 40996 1
54.5545 27.8891 30.8546 20144 2
54.6338 30.56 29.0354 248 2
54.8882 27.4424 28.2179 19382 2
50.0371 74.9545 43.6527 7274 2
59.3379 27.3747 28.8783 246 1
57.4001 29.2875 29.0902 19231 2
61.1779 29.3949 28.0033 2792 2
59.9993 30.4621 30.6795 200 2
59.2413 31.3032 28.2125 1109 1
61.4249 27.9938 30.1368 19243 1
58.9343 27.6606 31.5319 19234 2
64.2127 28.9071 28.6379 19242 2
63.0833 30.5784 30.5411 20214 2
69.4528 27.6264 30.9737 19186 2
68.144 26.9226 28.3839 30998 2
66.4155 28.3446 30.7973 12515 2
67.3113 29.5573 28.3615 30833 2
69.8895 29.836 29.3682 43818 1
68.5084 30.6226 31.5536 20158 2
74.1068 27.4549 29.8807 30993 2
72.4075 29.6904 29.574 43804 1
71.4905 27.6277 28.5336 18339 2
71.9952 28.1648 31.5254 18336 1
74.2991 29.85 27.7019 39105 2
71.2348 30.2788 31.5113 19294 1
67.7528 74.8426 54.9005 27162 2
18.1146 34.8962 29.9549 1017 2
20.8569 33.6524 28.5469 1060 2
20.3928 31.2494 27.5743 72807 1
20.6202 35.4048 30.717 63543 1
18.3834 31.8403 29.0006 63536 2
19.8629 32.98 31.4233 1934 2
26.3076 31.326 28.2457 40917 2
24.261 31.7054 30.6026 63681 2
24.1227 34.0665 29.3355 43702 1
22.3709 33.5302 30.7306 1069 1
23.2901 31.8573 27.8698 72814 2
26.188 33.3371 29.8145 1070 1
26.0146 18.3015 29.0993 23170 1
23.1125 34.5643 27.4544 63680 1
30.889 31.0615 29.7517 1940 2
28.3923 31.9392 29.9729 40965 1
28.4554 34.3238 28.2933 1031 2
30.1499 33.5872 30.4324 2916 1
29.2383 31.8095 27.7899 979 1
28.0606 34.1193 31.2329 1989 1
34.8736 33.9417 29.8145 24974 2
33.417 32.1279 28.8795 984 1
31.7181 34.3678 28.7735 1029 2
27.9347 18.4902 30.9068 1845 2
36.162 32.2549 27.8359 1077 2
38.9724 33.0867 28.9287 1199 2
37.0604 32.6237 30.5425 1080 1
37.6883 35.0489 30.6423 20283 2
36.3791 35.3927 27.8251 41937 2
20.772 18.3116 32.0739 969 1
41.0363 31.6951 27.7814 42701 1
40.1316 35.5185 29.3195 2002 1
41.6218 33.2679 29.9968 2004 2
43.671 32.4716 27.8175 41848 2
48.1497 32.1031 29.6627 2942 1
44.4085 34.6804 28.9363 2990 2
47.2118 34.6261 29.2879 2067 2
45.571 32.4174 30.7275 43700 2
48.5414 35.6358 31.2484 236 1
46.5741 33.1553 27.3306 197 2
50.137 33.7432 29.5804 237 2
52.5434 32.8533 30.6675 2902 1
52.7491 35.5973 30.2094 2022 2
51.5296 33.3485 27.3107 291 1
45.9115 74.9663 31.5386 21842 1
31.5918 75.0051 64.8786 10805 1
56.5638 34.4087 28.4525 19334 1
54.0123 33.3234 28.6231 20251 2
55.2933 34.2447 30.5146 1208 1
54.7191 32.1336 31.2437 249 1
57.0616 32.2221 29.9793 2077 2
59.0633 33.9274 27.9573 241 2
59.5177 33.172 30.6065 19233 1
57.7447 34.9269 30.3634 19235 1
61.6037 32.5226 28.6686 1112 2
60.4174 35.523 30.1468 2121 2
62.9987 35.3295 30.0382 43165 1
64.2564 31.7178 28.0394 18380 1
63.8507 33.1777 29.9934 19341 1
64.9234 34.5484 27.7766 19232 2
65.9086 34.6515 31.036 20256 2
66.0743 31.6963 30.0813 19289 2
61.7204 35.1439 27.3645 1111 2
68.7695 31.7921 28.8947 20162 1
66.5833 32.1081 27.5467 19288 1
69.5746 34.007 28.9321 19293 1
67.2585 34.1154 28.7321 20215 1
68.532 33.1446 30.932 19347 1
68.5151 35.5817 30.1533 19339 1
74.0012 31.3535 29.8691 43989 1
73.7039 32.6073 28.1961 19297 1
71.466 32.4477 29.7701 19246 2
73.2545 35.2357 29.1828 43988 2
71.2832 33.9074 27.4775 18438 1
70.9831 34.6825 31.3267 19295 2
74.5061 33.6072 30.8097 19301 2
19.3647 36.1867 28.0684 74330 1
20.0383 37.5255 30.0753 63542 1
19.4484 39.7028 28.6201 63537 2
22.3002 39.5569 28.911 2045 1
21.9201 37.0176 28.5402 1988 2
24.8847 38.6849 29.286 2036 2
25.9405 35.8378 30.4854 1075 2
24.4966 36.4311 28.1771 2034 1
23.232 36.2123 30.7347 1981 2
29.7478 36.3057 30.1797 1074 2
27.1961 37.049 28.2515 41015 2
29.6581 39.2986 28.8932 1028 2
27.9051 38.4996 30.8788 1122 2
30.084 36.7444 27.364 1027 2
34.5874 39.0892 28.8752 2829 2
32.0745 37.9003 29.2783 1079 1
33.9265 36.2666 28.6912 41936 1
32.641 36.0557 31.033 1997 2
33.6629 39.3087 31.3973 20156 2
35.6347 36.8304 30.575 1995 2
38.3186 37.3008 28.5114 41068 2
37.5216 38.7209 30.9084 2061 2
37.0689 39.9285 28.0362 41072 2
42.3671 35.8144 27.9157 41024 2
42.3419 36.0654 30.3858 2944 1
41.0002 37.6203 28.9961 40988 1
42.9282 38.9224 27.431 1204 2
43.1606 38.1169 29.9872 2066 1
41.4643 39.6759 31.544 3037 2
44.9509 37.2346 28.0888 1159 1
45.3448 39.269 29.3165 41031 1
47.6104 37.2741 28.8524 330 2
46.6554 39.0153 31.4287 25017 1
45.3813 36.8332 30.8484 2995 2
49.9247 36.1887 29.6559 41035 1
51.9238 36.1536 27.784 1155 2
51.8882 38.299 30.0087 1162 2
49.924 38.2039 27.9182 40108 2
49.1186 38.3359 30.949 1213 1
53.6187 38.9133 27.8059 18473 2
56.2749 38.6189 27.8538 41085 1
55.4795 36.9682 29.9472 20297 2
54.6323 39.4743 30.2575 388 1
54.7482 36.3556 27.2413 44000 2
57.3802 39.4094 30.4779 18430 2
57.9641 36.6849 28.2324 288 2
61.1369 38.0824 27.7831 18381 2
59.7263 38.2598 29.8479 18376 1
58.6632 39.7675 27.8912 19282 2
58.4662 36.987 31.1296 19276 1
62.1613 37.8001 30.761 19286 2
63.5423 36.9578 28.6467 1119 1
64.7589 37.0211 30.9201 20213 1
65.7221 39.199 31.1694 20260 1
64.2438 38.98 29.4724 44031 1
39.345 49.7985 27.1965 18505 2
66.274 36.9983 28.9337 19281 2
68.6884 38.2579 28.9615 19290 1
68.1979 39.4786 30.918 163 1
66.6297 39.9984 28.6094 18433 2
70.4471 38.9537 27.6105 18383 1
67.2452 37.248 31.4459 20208 1
74.9463 60.2851 69.8262 15026 1
70.6442 36.4357 28.6564 19349 2
71 39.2411 30.4111 18437 2
72.191 36.9208 30.8251 25899 1
74.0201 38.7769 30.9353 19352 2
72.8856 38.0098 28.5993 18386 1
19.1635 42.45 29.8783 63648 1
19.6045 42.0268 27.5003 63678 1
20.9841 41.1904 30.928 63529 1
21.2341 44.2026 30.196 63528 2
17.6755 74.7963 39.13 62795 1
21.8511 41.9128 28.9209 21093 1
23.3654 40.3208 30.7386 2039 1
24.3423 41.8068 28.4222 41066 2
23.7119 43.033 30.9347 63091 2
26.3543 41.2252 30.4226 2037 2
25.9558 43.5746 29.6559 2969 1
27.1405 40.1569 27.8569 41016 2
28.4051 42.7405 28.6797 43701 2
29.7398 41.5478 31.0034 25055 2
28.6744 44.3569 30.9908 2971 2
17.9949 36.9194 45.7394 5696 1
33.8766 42.0383 28.456 1998 2
31.4473 43.3435 29.6292 2090 2
32.0211 40.6007 29.6447 41941 1
34.9574 43.755 29.4548 2051 2
32.9588 41.8669 31.4487 1994 1
38.0187 42.0264 29.2176 1202 1
35.7624 41.268 30.6964 2053 2
36.217 42.6019 27.2118 2056 1
37.6694 44.3658 28.2404 41939 2
38.763 41.1517 31.5579 2926 2
40.2372 40.1215 28.7906 41984 2
40.4573 43.2592 27.723 3133 2
42.4365 41.599 27.9501 1200 1
40.9401 42.4359 30.3683 1198 2
43.3469 40.4671 29.6169 25047 1
43.8341 43.206 29.2721 1251 2
48.064 40.0953 29.1975 2119 2
44.8715 41.1358 27.7336 25049 1
46.8473 42.7506 28.4349 1254 2
45.8638 41.4891 30.4809 25018 2
50.7528 40.6329 28.3115 290 1
49.2293 42.4938 29.3942 2113 1
51.6223 43.2066 29.184 289 2
50.4672 40.7777 30.8834 2074 2
52.7436 41.2894 27.4245 1167 1
52.9581 41.0425 29.7273 20299 1
55.5765 41.3836 28.4283 18427 2
54.3155 43.1872 29.6303 39218 1
56.7145 43.7405 29.9748 19337 2
58.0132 43.0605 27.377 1350 2
58.0077 41.637 29.6282 18378 1
60.5924 40.8715 29.8357 20206 2
59.8064 43.2793 29.1689 1255 1
61.8099 43.1891 31.1728 20298 2
62.7086 40.2769 28.3785 18379 1
62.2829 42.7597 28.6559 18479 1
64.5621 41.745 30.0648 19338 2
64.5694 44.1608 28.7542 18435 1
74.8823 39.784 28.4454 18489 1
66.6992 42.8542 28.6906 19384 1
69.3538 41.3172 28.8468 18439 2
68.3811 43.5886 29.9189 19396 1
17.4893 31.702 67.3022 62208 2
69.907 41.5286 31.323 19340 1
67.2624 41.7636 31.4705 20305 2
72.4505 40.3416 28.291 18443 1
70.6469 43.6957 30.0432 19389 1
71.9464 41.9017 30.0161 20353 1
74.5385 41.7387 30.4223 20361 2
71.8221 42.8862 27.5707 19401 2
72.8408 44.1725 29.6618 2141 1
18.6749 44.8197 28.79 63282 2
18.7371 47.2719 30.0184 63280 1
21.3579 46.8542 28.7546 53468 2
20.748 46.7701 31.1354 48662 1
24.0855 45.0439 28.4063 63650 2
23.9265 47.4219 29.1435 2088 1
25.8353 45.9714 30.6793 2044 2
23.083 45.9374 31.2319 63083 2
26.2469 48.8735 29.5028 63281 2
27.2975 45.9447 28.0957 41064 2
29.9425 45.3158 28.5787 2049 1
28.6731 47.0046 30.1564 1131 1
28.396 48.404 28.1534 41062 1
30.8571 46.0123 30.7564 2046 1
31.0584 48.0829 29.1852 41946 2
33.2058 46.061 28.6099 2157 2
34.7159 48.4778 29.6936 2095 2
32.7901 48.5556 27.2633 2092 1
33.122 44.8568 30.9849 2979 1
32.9398 47.084 31.2765 2922 1
35.1649 46.0513 31.0718 3952 1
24.7871 18.3863 61.6253 62411 2
39.4905 44.7227 30.4295 2156 1
39.4341 46.6111 28.2841 41124 2
35.9784 46.3763 28.5646 41990 1
37.6212 46.8719 30.5796 2159 2
37.1837 48.6931 28.5442 2155 1
41.546 45.0776 29.2993 1249 1
40.8892 46.8928 30.8783 1292 1
43.5127 45.8998 30.0814 2162 1
41.975 47.9586 28.358 1293 2
43.0071 48.0594 31.2737 25009 2
43.7674 45.3854 27.8621 1257 1
47.4672 44.5774 30.8892 1253 2
44.8567 47.8104 28.1483 2169 2
45.8366 45.1359 28.9073 381 1
45.4294 47.1341 30.5604 21219 1
47.3891 46.8087 29.0256 385 1
47.284 48.6316 30.7714 2214 1
50.2332 47.5509 27.5909 1305 2
49.4112 44.7275 28.2315 340 2
51.8826 48.1934 29.9992 1345 1
49.355 46.913 30.3337 2208 2
51.9073 45.6521 30.0521 25040 2
52.9054 47.2309 27.7621 1298 2
55.8529 44.6409 27.7341 1264 1
53.5303 44.739 28.1475 1307 1
54.97 46.2122 29.8866 1306 2
56.4775 47.5038 27.4308 19426 2
56.8188 48.1206 30.9528 21280 2
59.3508 44.6832 30.8735 25046 1
58.3123 46.0019 29.0504 1303 2
60.9886 48.6949 28.9143 2172 2
61.5131 45.7924 29.3122 20338 2
66.1049 44.6942 30.738 21284 2
62.8189 47.64 30.9591 259 1
63.6324 45.2744 30.62 20304 1
64.4342 46.6474 28.5232 19386 2
65.6943 47.6401 30.8781 25875 1
67.6187 74.9516 59.9179 28049 2
67.3238 45.988 28.962 21192 2
68.5192 48.0883 30.7467 19439 2
66.4874 48.5992 28.9912 25042 1
68.6368 48.5759 27.8231 18476 2
70.5807 46.0953 28.8836 19436 2
73.0253 45.3877 27.5433 18542 1
74.0316 46.7546 29.4825 20313 2
72.0446 46.2642 31.5206 25873 2
71.4026 48.6891 29.8955 2268 2
18.5396 33.9596 27.1537 74584 1
19.123 49.3595 28.6137 63274 2
18.018 52.0889 28.5145 54461 1
21.177 49.5097 30.1527 48858 2
20.1686 52.4629 30.2407 63060 2
18.1236 50.6539 30.8312 63275 2
20.1974 51.7829 27.1132 63632 2
23.7685 49.7572 29.6442 63527 1
25.2298 51.3062 27.8673 2085 2
22.3755 51.8538 28.8652 63486 1
25.1054 52.0725 30.245 63483 2
22.2836 49.5051 27.4029 48669 2
27.9558 50.8678 29.2148 24951 2
29.6622 52.7035 28.6494 2040 1
30.9028 50.9792 29.7134 40237 1
28.9732 52.0953 31.3845 2973 2
26.9383 50.3859 31.5293 2091 1
20.1298 18.1706 55.0733 7293 2
66.4197 74.6798 38.0134 23587 1
32.948 50.3306 28.9899 41115 1
34.9557 51.1125 30.1734 41120 1
32.6229 52.988 29.2014 2048 2
37.6074 51.2553 29.0751 378 2
36.8913 49.5556 30.8094 63642 1
39.676 48.9868 30.079 1294 2
52.1075 18.2394 43.8119 4579 1
40.601 51.6458 29.2238 1339 2
42.6053 50.4802 28.0694 2200 2
42.4389 50.7073 31.1604 2242 2
43.7637 52.6988 29.0844 383 2
47.5441 49.3596 28.0914 41079 2
45.0718 50.0825 30.1194 1295 2
46.6071 51.9201 28.9681 394 1
48.4162 50.9688 30.8212 25836 2
48.9448 52.3794 28.0152 3092 2
50.0159 49.8451 29.2896 2213 2
52.2861 50.1843 27.6083 25001 2
51.1787 52.6578 29.8674 4065 2
52.4328 50.428 30.4655 1301 1
54.7827 49.2217 29.0915 19428 2
54.1783 52.2836 28.8654 25885 2
56.7584 51.2562 30.0662 25890 2
56.2561 52.9431 27.4022 19473 1
58.3172 48.8838 28.9433 19470 1
59.3886 51.1263 29.5271 3150 1
60.4027 52.9976 30.2438 19379 1
58.4439 53.095 28.7811 1267 1
61.3595 50.3428 31.2778 20342 2
58.741 49.9067 31.2798 1310 1
62.0087 51.4997 28.5043 19483 2
64.0162 49.3243 29.5683 18534 2
64.5697 51.783 28.4765 20397 1
63.8673 51.7173 31.0584 20392 2
67.348 51.1878 28.6661 19482 2
69.2746 50.4301 29.9916 1224 1
66.5423 50.5395 31.0484 20351 2
70.1435 52.4495 28.1259 19488 2
68.7573 52.9458 31.0959 20391 2
74.0141 49.1325 30.8623 25005 2
73.1294 50.7784 28.4338 19532 2
74.1145 51.8766 31.1562 19485 1
71.5996 51.6157 30.8387 20394 2
70.8533 49.9518 27.7466 20352 1
18.9158 54.7955 28.4784 63500 2
21.5022 54.5558 28.1715 63481 2
19.9818 55.6155 31.1224 63223 2
20.6742 57.4726 28.8052 48680 2
17.6768 56.5172 30.453 50587 1
22.3983 56.5616 30.4298 63485 1
22.2017 54.2067 30.6179 63046 1
23.8988 54.0051 28.825 63235 1
23.8999 56.686 27.9068 63634 2
24.7001 55.7292 30.6695 63188 2
26.754 56.8925 28.5114 63479 2
27.0984 54.136 29.4301 2089 2
29.2377 56.9765 29.5141 3022 1
29.1186 55.334 27.5166 40191 2
30.0098 54.5824 30.3667 40239 2
31.829 55.6041 27.8373 42703 2
33.7425 55.2552 29.8477 41977 1
34.8463 55.7555 27.4884 41126 2
31.7914 57.2882 30.3407 2982 2
34.9994 57.6919 30.0224 428 2
35.5854 53.3091 28.9581 41170 2
37.4463 53.3552 31.1343 2199 2
37.2126 55.4328 28.9709 477 1
39.4037 55.8731 30.6283 3191 2
39.0591 53.7124 28.9658 19545 1
40.0095 55.9572 27.6388 1343 2
35.9969 55.5832 31.3792 376 2
39.9722 53.2793 31.2877 2201 1
41.2658 54.2834 29.5322 481 1
42.4741 56.4306 30.69 2289 2
43.4152 55.1711 28.5414 1386 1
74.8991 32.0184 33.6524 10408 2
28.6432 74.7532 52.2906 25643 1
45.8381 54.1881 28.9507 2240 1
47.7558 55.3155 27.6291 1348 2
44.6862 55.1476 30.6807 1347 1
45.5382 57.042 28.65 1390 2
46.8482 55.9809 30.6043 1393 1
48.5185 53.8769 30.472 1297 2
50.3202 54.6664 28.5831 19565 1
49.2957 56.7723 29.6001 20463 2
51.5372 56.8633 28.0639 1399 1
52.0883 55.5245 30.4905 1397 2
52.5986 54.6116 28.0177 1352 1
54.4011 54.6999 29.7737 19469 1
54.1415 56.5769 27.6871 20435 2
54.5413 57.0176 30.4359 19657 1
56.1631 55.0735 28.2647 19517 1
56.5455 54.0812 30.791 25867 2
57.0305 57.3754 29.9121 448 2
60.714 54.036 27.3116 20390 2
59.2999 55.2709 29.9506 25887 2
58.2976 55.1368 27.504 18630 1
61.603 55.4883 31.643 19430 2
61.6528 56.3682 29.1253 25865 1
62.8586 54.0928 29.7192 19476 2
64.4185 56.6931 28.6887 19570 2
63.82 53.9264 27.1359 18633 2
64.8768 55.5684 31.4976 19478 2
65.9579 53.753 29.4147 19486 2
66.9654 56.3901 29.0843 19585 1
68.5361 54.7034 28.7701 19523 1
67.646 55.5556 31.0367 20445 1
69.3125 56.7555 27.3872 19586 2
70.9266 54.9057 29.7428 19524 2
73.1964 54.0387 30.7843 20447 1
72.8219 53.3283 28.6164 20402 1
73.7767 56.2098 28.522 20444 2
74.9342 55.4472 31.267 20446 1
21.1619 59.8563 27.5033 63438 1
19.3662 59.9857 29.3271 63040 1
19.0128 58.3166 31.0961 63185 1
18.0861 57.9422 28.2828 63187 2
21.8419 59.5123 30.3992 63183 2
23.8806 59.5788 28.396 63433 2
25.5607 58.6883 30.7086 53648 2
26.4291 61.2838 29.4081 63042 1
24.2635 60.7289 31.2548 63186 1
26.6513 59.3876 28.0492 63410 1
28.2612 59.4345 30.0196 63272 2
29.2081 61.0327 28.2067 53557 1
30.302 58.5237 27.7384 25023 2
30.6951 60.3137 30.2484 3012 1
28.7401 62.1449 30.3448 48774 1
33.1715 58.3249 27.9743 41981 1
33.0343 59.5389 30.5348 24941 1
32.4474 60.868 28.3277 1382 2
40.0523 74.915 54.8234 27121 1
35.5253 60.2576 29.2724 24999 2
37.759 57.8174 28.5144 1338 2
37.9258 58.5104 31.4289 1385 2
38.5401 60.7148 29.3981 24937 2
36.7172 62.0845 30.5812 20458 1
39.6495 59.0135 27.0198 41125 1
40.4957 58.3835 29.7083 429 2
43.5249 58.6493 29.7953 1387 1
41.9538 60.2079 28.4053 479 2
43.1391 61.1207 31.0521 1441 2
45.6086 60.2394 30.0223 1445 2
47.4085 58.3794 30.5572 2294 1
47.5968 58.8451 27.9775 1447 2
46.6975 61.5329 27.6011 1395 1
48.5295 61.0671 29.3737 1444 1
52.4557 61.1445 27.7956 2342 1
50.4299 59.4321 28.2656 19569 2
52.5887 58.5331 29.7994 1398 2
50.8762 61.2991 30.2039 25035 1
49.9622 58.9483 31.3272 3201 2
53.4576 61.0162 30.0794 24996 1
55.0894 59.5526 28.4225 20473 2
55.8278 61.3917 30.2317 25862 1
54.6369 61.9963 28.0125 18770 1
55.0108 59.2338 31.5883 20470 2
59.8041 57.7839 28.0403 19575 2
58.08 60.1416 28.5629 19618 2
59.6455 57.7789 31.1174 444 2
60.5239 59.7276 29.4176 20476 1
57.9092 60.1449 31.3776 20477 2
30.6849 41.9268 27.2661 41883 2
62.3494 58.6339 28.3844 19572 1
64.7222 59.5424 29.5039 19520 1
62.6276 61.0922 30.1824 19623 2
63.5779 61.6825 27.6939 19580 2
62.7417 58.0678 30.9854 20428 2
69.2231 57.6452 30.5223 19626 2
66.2047 57.9664 30.925 19578 2
66.7594 61.2614 28.1053 546 2
67.2804 58.7176 28.2772 1420 2
69.5447 60.4912 29.4101 20487 2
67.3073 60.1837 30.6797 20483 1
71.308 57.6228 29.1117 20488 1
74.7555 60.8409 30.2005 20497 2
72.9346 59.5744 28.5069 20485 2
74.2616 57.9715 30.6786 20489 2
71.7347 61.8507 27.4506 19632 1
72.0087 61.6307 29.8428 21396 1
71.664 59.3002 31.273 20537 2
18.1153 62.2421 29.6643 55544 2
20.9189 62.2804 28.8127 63425 2
20.3247 65.6895 28.5307 54635 2
19.0201 63.5544 27.5336 53783 1
19.7925 64.1218 31.0542 63146 2
17.9415 65.0469 29.2526 55588 1
22.3215 62.2605 31.0239 63233 1
24.2454 62.8144 29.0691 54632 2
25.5947 65.5416 29.1534 63028 2
22.5959 64.6971 29.7182 48872 1
72.3102 74.9112 58.4523 27992 1
27.7098 63.3162 27.9794 63227 2
29.1415 64.9645 30.0843 63176 2
26.8213 63.6467 30.4165 63043 1
74.8028 65.261 40.1729 24363 1
27.8036 65.9249 27.2777 5799 2
30.857 63.2156 28.3817 24954 2
33.8842 62.044 30.705 3025 2
33.693 63.6103 28.4552 19499 2
31.7801 65.0442 29.8896 2284 1
32.8142 66.1848 27.9512 24853 1
31.1956 62.8283 31.387 22153 2
35.251 65.9784 27.4977 24997 2
36.7256 62.6695 27.8715 2288 2
38.0688 65.4299 28.1173 2328 2
35.9419 64.5597 30.1627 3184 2
38.7647 63.7495 30.6447 1384 2
39.3376 63.1557 28.1335 2286 1
40.7153 62.221 29.8492 19607 1
42.5008 64.0716 29.3226 1439 2
41.0543 65.6879 31.3515 2331 1
41.4877 62.6212 27.5253 25906 1
40.5393 65.7682 28.9787 572 1
44.4306 62.2097 28.4374 1391 1
44.5453 63.1472 30.9838 1438 1
47.6728 63.997 27.5952 528 2
45.2578 65.0434 28.1204 1442 2
46.8475 63.2159 29.8507 1443 2
47.7608 66.3716 30.2473 19614 2
45.1273 65.4167 30.6633 19652 1
49.491 63.47 29.7593 25036 1
52.0275 63.5692 29.4285 19617 2
49.7992 65.7544 28.3204 1446 2
50.8542 66.0617 31.054 2388 2
50.1221 62.1714 27.5196 19660 2
55.8104 65.8416 27.4851 583 2
54.575 63.9344 29.3535 19665 1
55.918 65.4991 30.6766 2430 2
56.9465 63.0481 28.701 20521 2
53.1474 65.9747 28.8815 2381 2
60.6968 65.5704 28.8623 19670 2
58.5692 64.5676 30.1077 20522 1
59.8605 62.3713 28.8842 18729 2
24.5641 74.6306 50.7064 7208 2
65.4884 61.851 30.9422 20528 2
62.3885 63.4267 29.361 25860 1
65.1131 63.4194 28.8846 19625 1
63.8108 65.3171 29.4328 19624 1
21.4762 44.1183 27.4051 48570 2
31.7642 75.1247 31.6726 3550 1
66.4042 65.4482 29.9639 21433 2
67.6077 63.9527 28.3985 602 1
67.8758 62.7044 30.2091 20533 1
70.2932 63.5168 28.8049 20527 2
68.8843 64.6738 31.14 25854 1
70.1107 65.8751 31.2992 23502 2
70.6355 65.7545 27.4573 1461 1
73.834 63.1202 28.4749 19679 2
72.6022 65.7884 29.308 21693 2
71.7091 63.6511 31.0253 19639 1
74.2609 63.902 31.1566 22549 2
72.4015 48.0523 27.1823 19445 2
18.6753 68.2237 28.5377 54678 1
21.2935 68.5769 28.0671 63142 1
21.1335 67.6336 30.516 63177 2
18.5618 66.9591 30.711 50692 1
19.9381 70.4094 29.7649 54810 2
23.745 66.4097 31.0255 55685 1
23.2281 66.9134 28.7016 63141 1
23.4359 69.3734 30.1498 54677 2
25.3186 68.0782 28.7516 63140 1
25.6488 70.2334 29.0307 63124 1
27.6672 67.5184 29.7592 63144 2
26.9761 68.7666 27.3649 55682 1
29.2297 68.0667 27.6878 1383 1
28.5317 70.2722 29.2138 63139 2
30.9019 67.4198 29.8189 63037 2
27.0411 70.5959 31.323 4452 2
30.1752 69.6811 31.2626 63039 2
31.6596 68.6149 27.4373 63014 2
34.1643 68.2899 28.2695 48819 1
32.9909 69.8208 30.1904 4408 2
34.0185 66.9109 30.387 5806 2
38.7689 66.413 30.7553 2332 1
37.0553 67.7992 29.3288 2373 2
38.6802 70.0772 29.9984 2419 1
35.767 69.9451 29.9742 3598 1
72.6123 74.9572 53.9569 27165 2
40.3543 68.1908 29.3936 1482 2
42.9906 69.0615 28.7727 579 1
42.9889 67.0171 30.4543 2420 2
41.9752 69.5563 30.9314 1485 1
42.8703 66.6618 27.3797 527 2
74.9035 38.8072 52.265 27344 1
45.422 68.0625 28.6633 578 2
47.9794 68.7882 28.6341 1528 1
44.6897 70.1226 30.8578 1483 2
46.7015 70.7007 28.9848 3300 1
47.6009 69.4696 31.1787 3294 2
49.7621 68.3061 30.0575 2338 1
52.0594 68.2375 29.6656 2427 1
51.9725 70.4065 28.6013 2431 1
50.3341 68.6828 27.5232 1488 2
54.2332 70.0932 30.3102 1533 2
55.3912 67.9977 29.2791 2425 1
53.8494 67.5385 31.1777 2384 1
53.7331 68.3205 27.1943 19710 2
57.0691 70.0536 28.8135 19667 2
60.9121 69.1058 28.6269 19718 2
60.4276 67.7472 30.8379 20569 1
58.167 67.182 28.9715 25882 2
58.761 69.6437 30.7016 25855 1
70.8349 67.994 27.4283 2396 1
62.6678 67.2116 30.3756 20571 1
63.3156 69.7959 27.6014 21779 1
65.2886 67.8137 29.0452 20529 2
63.4023 69.4709 30.0006 21735 1
66.1061 68.6305 31.2819 19669 1
68.6028 66.6626 28.7975 18736 2
68.1546 69.1218 29.6791 22589 2
70.701 67.9455 29.6336 25816 1
70.5111 70.1617 28.5055 18741 1
73.059 68.7946 28.4665 2592 2
72.5289 67.7787 30.9498 25853 1
74.194 69.6166 30.8121 21748 1
63.4368 18.1935 33.1423 12512 1
21.8558 70.892 28.0991 63128 1
17.8085 72.0136 28.0664 63105 1
19.623 73.672 30.1326 54859 2
18.0984 74.9839 27.6235 63363 2
20.5685 72.9286 27.5232 54023 2
22.2829 74.8562 29.4103 63116 2
22.2512 72.1875 30.8867 62901 2
23.9861 72.2796 28.3473 63118 2
24.8478 71.7389 30.8898 63010 1
24.5941 74.3807 30.6123 4505 2
26.6408 72.8136 29.3756 48908 1
28.8503 72.6012 30.7992 4507 1
29.8096 72.9874 28.4362 3587 2
27.7638 74.1972 27.324 3538 1
30.9895 70.6824 28.6755 4458 1
34.923 71.6371 28.6045 21775 1
33.9873 73.8206 29.984 3599 2
32.5075 72.3511 28.4897 4512 1
31.4235 72.6219 30.9215 3543 2
34.8341 71.6918 31.2079 3544 1
37.169 71.7109 29.1035 3597 1
39.4609 72.8393 30.4955 4520 2
36.3631 74.2348 28.6983 3602 2
36.6683 73.4889 31.4694 23876 2
38.8889 73.201 27.4808 22511 2
42.9652 73.2063 27.5861 577 2
41.1664 71.1707 28.6875 2374 2
42.6311 72.653 30.6626 1532 2
41.0797 74.3762 28.7934 19699 1
43.9777 70.9419 28.5095 530 1
47.9148 73.3072 27.7198 633 2
17.3512 52.4933 63.789 11319 1
45.3598 72.9082 29.5323 1487 2
47.9147 72.6984 30.7088 2424 2
65.0324 74.9384 71.573 29892 2
45.4255 74.485 27.337 37850 1
49.5054 71.0631 29.5745 2426 2
49.9968 73.8212 29.2398 21736 1
52.2369 72.2277 29.9418 22630 1
52.7539 74.4279 30.9966 22632 1
54.5207 71.2392 27.8504 25821 2
53.9235 73.5525 29.3102 21526 1
55.4164 74.6251 30.5079 21729 1
56.6543 72.4103 30.0071 21476 2
55.7539 73.7621 27.9949 12850 1
58.8674 74.5453 30.3822 20618 2
59.6307 71.7981 29.3962 20619 2
60.5399 74.2136 27.8366 21788 2
58.1025 73.7698 27.8031 25814 1
61.5381 73.5882 31.0187 21730 2
62.3966 71.5403 29.1445 25856 1
65.6099 70.9625 29.6844 20824 2
63.8214 73.8101 28.8358 22588 2
63.8184 72.0752 31.2118 25778 1
68.9423 74.8311 29.4836 21787 2
66.6246 73.1184 30.934 22638 2
66.4366 73.7667 28.0123 21781 2
69.8064 72.7472 27.5317 22688 2
69.274 71.9673 30.5145 21737 2
67.9192 71.3023 28.3293 21740 1
71.7244 70.7164 30.8641 22642 2
72.2188 71.6654 28.3984 21785 1
71.5718 73.966 29.3597 25817 1
73.8854 74.0566 27.773 20834 2
73.9766 72.8388 30.7566 21791 2
71.466 30.9448 27.3649 43793 2
20.3865 19.398 34.367 2716 2
17.861 19.7805 32.8623 59349 2
20.6203 20.6374 31.9622 25064 1
19.2636 22.408 33.6311 20051 2
58.6208 18.3833 65.7204 16664 2
23.2646 19.4644 32.5708 20009 2
25.0309 22.0374 32.3386 24990 2
23.6159 19.2858 35.4407 3701 2
22.0897 21.6463 33.9614 1841 2
26.0312 19.1345 33.1493 784 2
27.1638 20.9678 34.2495 2772 1
28.3709 20.8145 31.9212 2717 2
28.9401 18.6184 33.9839 1847 2
29.3197 21.7562 34.2899 2776 1
30.8785 19.8102 33.1278 1891 2
32.5515 21.537 31.6109 25026 1
33.1268 18.965 31.9215 23637 2
33.8422 21.0339 33.9125 2775 2
33.2177 18.8102 36.1543 987 1
36.0227 19.1913 31.8923 20120 1
39.0792 19.2033 32.3813 21910 2
36.8571 20.9911 33.8611 1900 2
38.6636 19.3726 35.3103 3663 2
40.0937 21.657 34.252 3662 2
42.791 21.4687 31.8328 3665 1
42.026 19.6877 33.4004 22582 2
44.5165 22.8575 33.4305 2784 2
41.3831 19.2153 35.7117 25771 1
43.9056 18.1087 35.4911 3667 2
44.6577 19.9197 33.4809 12875 1
46.2576 20.8054 35.3429 2791 2
47.6709 19.5645 33.0412 23264 2
46.8369 18.0336 35.6632 21060 2
49.3471 21.4401 35.0634 2736 2
49.739 21.4839 32.6167 21895 1
51.215 18.9855 33.2722 3670 2
49.6054 18.9258 35.2637 22528 1
52.1744 21.8312 35.8463 22570 2
52.5586 21.8864 32.9711 2785 2
56.9787 19.524 31.5056 11602 2
53.1672 19.6333 34.8041 21898 1
54.7381 21.0648 31.8418 23127 1
55.3751 20.6027 34.4383 22564 2
54.0313 18.4254 32.2638 22533 2
57.269 22.4787 35.0687 12459 1
54.6689 23.0743 35.4362 2851 1
57.6826 21.694 32.9075 23632 1
57.8942 19.5192 34.7308 21893 2
59.4042 19.9956 32.4566 20993 1
60.3797 21.4906 34.298 20141 2
60.9186 18.4679 33.9572 22527 2
61.9446 20.7788 31.8517 38322 2
64.7964 20.1683 32.0902 12897 1
63.5127 20.4876 34.3684 25850 2
65.6513 18.9185 34.7422 31025 1
27.8078 74.9986 36.9369 24855 2
66.5731 21.1713 33.7178 11550 2
68.7321 19.2221 32.8236 30802 2
69.6359 20.9276 34.6981 1659 1
66.6715 74.9838 57.5997 27161 1
74.6622 20.1456 35.355 12412 1
71.5701 20.6178 32.7426 22613 2
74.0638 22.2544 34.0066 30808 2
72.1127 20.1502 35.2278 12506 1
71.2915 22.6447 34.6488 11516 1
74.9107 63.9084 43.858 24358 1
19.1697 24.6024 31.9991 1930 1
21.1957 25.9339 32.334 2818 1
19.6446 25.2118 34.4922 2809 2
21.6853 23.3535 32.064 1886 2
22.3573 24.6389 34.902 2820 2