ITEM: TIMESTEP    
110000     
ITEM: NUMBER OF ATOMS  
77888     
ITEM: BOX BOUNDS pp pp pp
17.607 132.393    
18.0782 131.922    
24.0027 125.997    
ITEM: ATOMS x y z id type
19.6814 20.8065 24.6906 72779 2
20.5525 18.9081 26.4637 1839 2
24.47 72.7187 24.411 63118 2
22.2818 21.329 26.6873 977 2
24.3893 19.5736 25.9984 23170 1
25.0667 21.6063 26.6847 1848 1
25.8699 19.4277 27.7124 22628 1
24.9858 21.5659 24.1699 926 1
23.3431 74.8407 65.8206 11708 2
27.0054 20.3174 25.7198 72824 1
29.706 20.6541 26.4336 20062 2
28.1582 18.2012 28.0289 1845 2
23.0857 61.2855 24.2338 63598 1
69.495 18.0519 36.5822 11595 2
32.3946 19.8651 26.4839 43709 1
31.1004 19.6179 24.4753 2719 1
35.077 20.4249 26.1652 1851 2
59.6153 74.9895 30.0571 22636 2
32.2756 21.5825 28.1659 25026 1
37.8791 20.6682 24.9138 22537 2
37.2938 21.4197 27.8779 1899 2
37.615 18.2276 26.3258 22536 2
39.6175 18.2893 24.5239 1904 1
39.8118 22.2784 25.0713 2790 1
40.4093 20.1462 26.5873 1854 2
43.0591 19.0673 27.1364 23128 2
42.4813 22.1477 25.8523 40934 2
42.4009 18.2262 24.4078 23153 2
32.8219 48.6195 24.1181 2092 1
44.8932 20.1936 25.2824 1099 2
47.6371 20.4477 25.3639 40834 2
45.9875 19.5315 27.976 22576 2
48.1254 22.0211 27.6165 1908 1
50.5404 18.8299 25.2939 38521 2
50.0369 21.693 25.4339 40893 1
52.3074 19.436 27.5406 22574 1
51.1654 22.2524 27.8106 1110 2
49.5167 19.8778 27.842 22529 2
52.802 20.8343 25.4769 38365 2
55.8517 18.7497 25.1468 21944 1
54.6905 19.6844 27.0212 12513 1
55.6962 21.248 24.5937 39988 2
57.1338 20.6264 27.1115 13500 1
60.7863 21.4875 25.1219 31298 2
60.0393 19.2025 27.0942 19184 2
59.6996 22.0326 28.0311 31285 2
61.11 19.1233 24.6616 31004 1
58.3834 19.7886 24.7923 38509 2
65.4413 18.1289 27.0811 30999 2
64.926 21.4265 26.9623 21892 2
62.7648 20.1557 26.204 31021 1
65.2317 19.489 24.8045 30371 1
46.7593 18.7599 74.9107 15454 2
67.7843 19.7365 25.6648 31023 2
69.5082 21.0083 27.8707 19245 2
70.2281 22.2044 24.7082 31019 2
17.8718 29.9246 28.405 1936 2
74.6344 62.3693 67.7839 27673 2
71.1811 20.1844 26.202 30996 2
73.7187 21.359 27.1983 12413 2
27.4871 74.8613 60.7084 8995 2
74.5488 59.8632 69.2701 15026 1
21.5244 23.9154 26.6165 25062 1
19.1916 25.5936 25.8433 970 1
18.7639 22.9225 26.5441 1928 2
21.9578 25.9591 25.1558 52493 1
20.6624 26.2413 27.7879 1885 2
20.8543 23.4538 24.1782 19183 2
23.4849 25.9833 27.1125 1888 1
24.0126 23.8513 25.4578 25024 2
25.9694 25.4283 26.541 1945 1
25.9135 23.3734 28.1256 1884 1
27.2348 23.1034 25.8365 1846 2
29.8224 23.3429 25.063 1895 1
28.1329 25.3333 24.7357 1943 2
30.6938 25.8257 26.2924 40920 2
30.1277 23.1963 27.8323 1944 2
32.4241 22.6893 25.69 989 2
34.0032 25.7638 26.4159 1035 2
32.3303 24.6992 28.0264 25060 1
34.5372 23.0106 28.0639 25027 2
36.451 23.1876 25.854 40928 2
37.1498 25.8948 27.1159 2729 2
36.1281 25.526 24.554 40922 1
39.3811 24.0155 26.9227 3770 2
39.6966 26.4427 25.7465 2836 1
41.3502 24.8719 25.1771 1956 1
41.9581 24.7659 27.6053 2782 1
43.7763 24.5535 25.7617 41801 1
45.6822 22.7602 26.4465 43705 2
46.3045 25.6661 25.2474 40939 2
46.9047 24.4759 27.7717 1153 1
44.6629 26.5395 27.7726 2837 2
74.9608 20.789 63.4042 29927 1
49.1151 24.1553 26.3551 40989 2
52.1646 23.8139 25.4329 19180 2
50.9917 26.1428 26.9522 2020 2
52.5956 26.6583 24.2724 1165 2
54.6117 22.4644 27.4394 23176 2
53.6046 26.0093 26.8879 23642 1
55.2842 24.4588 25.3703 40025 2
55.386 24.7517 28.4029 40030 1
57.1232 23.0611 28.2058 23172 1
57.9276 25.685 26.98 18330 2
58.0197 22.768 25.8395 38629 2
60.2088 24.7543 27.6337 20148 1
60.596 24.5516 24.9554 199 2
57.7531 24.9649 24.3495 18326 1
62.4647 23.3185 27.0104 19285 2
65.1695 25.0133 28.0965 20106 2
65.0125 23.8456 25.7462 18327 1
63.2211 26.3071 25.9538 19229 2
66.0023 26.3355 25.9828 18337 1
63.1648 23.1727 24.3732 30803 1
67.7013 22.1422 26.1084 31293 1
69.9851 24.177 26.9427 1065 2
67.9446 25.6903 27.4479 19241 1
67.6821 24.6048 24.8497 31294 2
67.415 23.0892 28.4383 31002 2
74.3648 18.2942 68.9228 12713 2
72.6024 23.2764 25.9225 12457 1
72.4077 25.7617 26.2364 30290 1
74.6486 24.7751 26.5762 43162 1
73.6883 25.0878 24.4071 44079 1
26.252 18.1999 25.4992 22740 1
18.3276 27.5617 27.3983 63548 1
19.7191 28.9516 25.6207 1933 2
21.8508 30.7441 26.3639 1071 2
71.9745 71.0092 70.6431 14222 1
24.7073 26.7338 24.2438 25061 2
22.3482 28.007 26.4729 63545 1
24.3387 29.6222 25.2571 1023 2
25.0234 28.0665 27.5072 1025 2
26.7293 30.1759 26.9947 40916 1
26.8193 28.8541 24.5094 986 1
27.8581 27.6177 26.738 39954 2
28.7546 30.0916 25.3332 19240 1
30.7037 29.076 26.3868 983 1
29.4495 27.9095 24.3586 41796 1
29.1069 30.1369 28.2446 1947 2
32.779 27.9971 27.8641 41845 2
33.4793 29.65 25.4953 41885 2
34.1117 30.7478 27.822 1033 1
32.005 27.2584 24.6294 43811 2
35.7642 28.4306 26.5979 40926 2
37.7198 27.3006 24.8122 2779 1
37.7816 30.2927 26.6508 2010 1
38.6141 28.092 27.0405 1083 1
39.5184 29.1386 24.8 1907 2
17.6359 28.873 74.4862 62060 1
42.5549 27.2921 25.7368 41842 2
43.6265 29.9999 26.4776 43703 2
40.7223 29.9495 27.3051 40975 2
42.2007 29.4252 24.1447 1897 1
45.2746 28.1354 25.4807 40985 1
46.8999 30.3332 25.4957 41032 2
48.1437 27.5498 26.5907 40935 2
45.8179 29.2681 28.4162 41849 2
49.4467 30.2426 26.5721 1954 1
50.744 28.3769 25.4735 42717 1
50.8534 28.7332 27.8356 2027 1
52.1819 31.0376 26.0644 1163 2
53.0418 28.3832 26.6167 40996 1
55.2762 27.6134 27.9214 20144 2
55.3234 30.1664 26.4326 248 2
55.7558 27.3053 24.9674 19382 2
53.5459 29.0432 24.3474 1105 1
58.6996 27.1272 24.3713 19227 1
60.4291 27.0056 26.1429 246 1
58.1297 28.7143 26.5749 19231 2
61.4749 29.5054 25.3573 2792 2
60.6399 30.6251 28.1717 200 2
59.2414 30.9256 25.5638 1109 1
62.0998 28.2868 27.5797 19243 1
64.6037 28.859 25.6084 19242 2
63.6489 30.5092 28.0654 20214 2
68.8407 27.3859 24.8586 30998 2
70.1154 27.1918 27.4898 19186 2
67.1673 28.4067 27.1408 12515 2
69.8765 29.6533 25.868 43818 1
67.341 30.4434 24.7616 30833 2
74.646 27.4936 26.1424 30993 2
71.702 29.6444 27.2241 19294 1
73.5666 30.5269 25.9585 43804 1
71.9915 28.2201 24.7363 18339 2
72.7127 27.5845 27.9186 18336 1
74.4018 29.5018 28.4983 19300 2
18.1 31.5905 25.7956 63536 2
18.4258 34.9617 26.1992 1017 2
21.5958 33.7582 25.6327 1060 2
19.8922 32.335 27.9582 1934 2
19.3206 33.4076 24.3147 74584 1
20.8987 35.443 27.4084 63543 1
20.6576 31.3806 24.1947 72807 1
24.7113 32.2273 27.0762 63681 2
24.3701 34.3573 25.2731 43702 1
23.3842 34.9373 27.3688 1069 1
26.427 34.3169 26.0847 1070 1
67.1331 74.8131 63.9989 27998 2
28.1523 32.2658 26.5251 40965 1
28.8639 34.4725 25.0423 1031 2
26.6193 31.8686 24.4875 40917 2
28.1726 34.6107 27.7633 1989 1
30.794 31.7928 26.1662 1940 2
34.5219 34.5915 26.9497 24974 2
33.2192 32.4136 25.9636 984 1
31.5788 34.7004 25.9789 1029 2
35.8267 31.8291 25.9276 41893 2
39.0475 32.4081 25.7219 1199 2
36.8491 35.0392 25.2321 41937 2
37.2104 33.274 27.8154 1080 1
39.4341 34.6932 27.6244 20283 2
39.6495 35.3783 24.7978 19202 1
41.5032 31.519 25.1401 42701 1
41.6362 34.4534 25.8966 2002 1
44.0369 32.6161 24.7162 41848 2
41.9277 32.6014 27.684 2004 2
44.2497 34.7865 26.5752 2990 2
47.7385 31.4745 27.7327 2942 1
47.2924 34.3178 26.7772 2067 2
45.3436 32.245 27.3214 43700 2
47.1021 32.923 24.5277 197 2
50.0084 32.7077 27.0649 237 2
52.2892 34.7644 27.6051 2022 2
51.6805 33.8014 25.0408 291 1
49.8371 31.639 24.2611 41898 2
57.0125 34.6466 25.9464 19334 1
54.41 33.3472 26.0703 20251 2
56.9688 31.7357 24.1726 39077 2
57.6741 32.0065 27.5081 2077 2
59.1397 33.5279 25.4254 241 2
60.4493 33.5311 27.9695 19233 1
61.6187 35.0326 24.2885 1111 2
62.2651 32.4254 26.0208 1112 2
62.7245 34.8921 26.8844 43165 1
64.8812 31.7191 25.3504 18380 1
64.657 33.241 27.3774 19341 1
64.7963 34.9979 25.1901 19232 2
66.4438 35.0441 27.3792 19339 1
66.5137 31.4249 27.6583 19289 2
66.8402 33.2135 25.5868 19288 1
68.8999 31.7437 26.4043 20162 1
68.7804 33.9884 26.7842 19293 1
67.7119 35.3744 25.3033 20215 1
62.4399 74.7387 37.5932 22682 1
74.0023 32.5063 24.4883 19297 1
71.4623 32.133 26.1529 19246 2
73.391 34.6885 25.7794 43988 2
74.6004 32.7261 27.3105 19301 2
20.1312 37.3116 25.8397 63542 1
21.9904 38.669 27.8717 1979 2
72.176 72.9159 72.6517 15179 2
22.7521 36.7693 25.6295 1988 2
24.893 38.9931 26.2674 2036 2
25.6883 36.1856 27.5447 1075 2
24.7674 37.0258 24.1941 2034 1
29.7244 36.8081 27.0197 1074 2
27.2325 36.9663 24.9882 41015 2
29.8207 39.7323 25.8888 1028 2
27.624 38.8372 27.3292 1122 2
70.8693 25.1611 24.2033 44061 2
34.8578 37.4335 26.5977 2829 2
32.1473 38.1177 26.4375 1079 1
33.0503 36.6102 24.9183 41936 1
32.6281 36.3139 28.468 1997 2
38.166 37.4268 26.045 41068 2
37.0878 38.7583 28.0695 2061 2
42.2545 35.5578 28.1025 2944 1
41.1938 36.8836 26.1973 40988 1
43.1434 38.7687 25.0622 1204 2
42.9069 37.8716 27.6241 2066 1
40.4064 39.4974 26.5553 41984 2
45.3307 39.0124 27.0543 41031 1
47.7572 37.257 27.1506 330 2
46.5662 39.0972 24.8536 286 2
45.1377 37.0823 25.6227 1159 1
46.9419 36.0832 24.6995 1197 1
50.1244 35.2367 26.1186 41035 1
52.4408 36.7713 25.0779 1155 2
51.0475 37.5129 27.4919 1162 2
49.3838 37.5964 24.7757 40108 2
53.4243 39.2223 26.3356 18473 2
54.9224 36.2872 26.9049 20297 2
55.5403 38.599 27.9388 388 1
57.5629 36.9074 27.4028 19276 1
69.1986 18.3569 68.688 29528 1
64.9759 74.8995 65.7181 28975 1
60.4071 38.7276 24.8819 18381 2
60.2202 36.0301 26.7802 2121 2
57.6815 39.5406 26.5818 18430 2
59.7882 38.5011 27.742 18376 1
57.886 36.8998 24.6899 288 2
62.7735 37.1732 25.5654 1119 1
62.4362 38.9771 27.7655 19286 2
64.2447 36.8833 27.4999 20213 1
65.3638 39.4782 27.9487 20260 1
64.2568 39.5377 25.4721 44031 1
66.3424 37.6705 25.7456 19281 2
68.8576 37.6472 25.7023 19290 1
68.0399 39.055 27.4645 163 1
70.5409 35.6893 25.63 19349 2
70.8127 38.2344 24.2964 18383 1
70.9722 38.669 27.1956 18437 2
72.2638 36.5482 27.5195 25899 1
73.9488 38.5963 27.8717 19352 2
72.9821 37.5202 25.4318 18386 1
74.7274 39.0758 25.2393 18489 1
72.3357 39.9815 25.1786 18443 1
19.9941 39.948 26.1486 63537 2
19.0405 42.3839 27.1993 63648 1
19.8565 42.7561 24.9897 63678 1
21.2764 41.6399 28.2982 63529 1
22.5144 39.9564 25.4478 2045 1
23.5749 40.9294 27.9166 2039 1
22.1517 42.2927 26.0552 21093 1
24.8734 41.8634 25.1572 41066 2
24.2406 43.5691 27.7703 63091 2
27.1045 39.8914 24.3318 41016 2
26.4414 41.4539 27.7012 2037 2
28.3232 42.483 25.5432 43701 2
34.9852 40.2392 25.9921 1998 2
30.934 42.0754 24.1458 41883 2
31.2675 43.7303 26.6279 2090 2
32.1916 40.9445 26.3999 41941 1
33.9207 43.0729 25.9784 2051 2
37.9076 40.2935 24.818 41072 2
38.3276 41.5582 27.4132 1202 1
36.0229 42.3716 24.281 2056 1
37.1505 43.7807 26.2618 41939 2
39.83 42.7105 25.1952 3133 2
35.7566 41.4641 28.2831 2053 2
42.0687 44.0839 24.3916 41075 1
42.2732 41.4143 25.342 1200 1
41.1457 42.1562 27.8572 1198 2
43.303 40.4818 27.3074 25047 1
43.8512 43.3099 26.67 1251 2
70.4768 18.2295 27.9336 38366 1
44.8759 41.0524 25.5263 25049 1
46.8889 42.7096 25.5227 1254 2
48.2291 40.0769 27.0912 2119 2
45.996 41.5726 28.2227 25018 2
50.5372 39.7136 25.8239 290 1
49.5177 41.4919 24.348 41038 2
49.5805 42.4457 27.0593 2113 1
52.0394 42.1613 25.7212 289 2
54.5133 43.9778 25.2201 1307 1
55.5053 41.4069 25.7808 18427 2
54.9398 43.5029 27.5783 39218 1
53.373 41.7813 27.672 20299 1
57.092 43.8862 24.4448 1350 2
58.7228 41.3772 24.2729 19282 2
57.8702 42.8705 27.2461 19337 2
60.2155 41.3842 26.6981 20206 2
59.6087 43.9928 25.6979 1255 1
61.9558 42.998 25.0008 18479 1
61.6803 43.8367 27.6902 20298 2
62.3403 40.585 25.4293 18379 1
64.0863 41.9599 27.2073 19338 2
64.0186 44.1778 25.9096 18435 1
66.1987 43.5329 25.0715 19384 1
66.597 40.8416 25.6088 18433 2
69.5059 40.7318 25.3657 18439 2
68.0188 42.9442 26.4835 19396 1
69.6353 41.6006 28.1594 19340 1
70.1723 43.6921 26.444 19389 1
71.6154 41.189 27.0691 20353 1
74.2602 41.3429 26.9469 20361 2
71.9541 42.5265 24.4972 19401 2
72.8768 43.9617 26.4113 2141 1
21.2737 44.4217 27.1347 63528 2
18.5372 45.0653 25.7978 63282 2
18.7847 47.4761 27.4215 63280 1
21.6298 46.9984 25.9919 53468 2
74.7025 33.1924 39.7609 22960 2
24.3972 45.6335 25.3566 63650 2
24.3648 48.0902 26.7232 2088 1
25.5798 48.2943 24.3419 41060 2
26.4759 44.0511 26.5083 2969 1
27.5667 46.3028 25.4503 41064 2
30.0936 45.9993 25.9835 2049 1
28.7613 47.2599 27.5857 1131 1
32.8383 46.469 25.7852 2157 2
32.562 48.1424 28.0242 2922 1
34.9877 48.2991 26.8819 2095 2
35.1889 45.1261 27.4042 3952 1
68.462 74.9529 29.3047 21790 1
74.9151 26.5166 33.079 12537 2
70.703 18.1263 60.4824 4681 2
39.4471 44.2761 27.6822 2156 1
39.4568 45.8619 25.3735 41124 2
36.3847 46.2461 25.577 41990 1
37.7394 46.6311 27.6345 2159 2
41.5713 44.8518 26.5671 1249 1
41.9484 46.9872 24.6593 1293 2
41.0561 46.8403 27.6989 1292 1
43.636 46.1278 26.6525 2162 1
44.3782 45.0939 24.3052 1257 1
44.9957 47.9892 25.1021 2169 2
45.967 45.2139 26.1117 381 1
45.9878 47.0025 27.5232 21219 1
48.023 46.4444 26.3559 385 1
73.3789 18.2835 27.4336 21403 2
52.3058 44.7438 24.5215 2120 1
52.5466 44.6453 27.3691 25040 2
49.8908 44.603 25.3443 340 2
51.9615 46.7767 25.9658 1345 1
49.976 47.2511 24.0643 1305 2
50.3172 48.7544 26.7618 2213 2
56.2999 45.5946 26.8579 1306 2
54.4732 46.403 24.7502 1264 1
54.4544 48.3048 27.0594 19428 2
56.2211 48.5397 24.8527 19426 2
59.2906 45.7852 27.7074 1303 2
58.9238 46.8484 24.9611 20346 2
57.7193 48.2731 27.702 21280 2
62.0417 46.0026 25.5596 20338 2
60.7908 48.5786 26.9145 2172 2
61.8561 46.5245 28.3475 259 1
63.8549 45.8249 27.6371 20304 1
65.2913 46.4384 25.3908 19386 2
62.8282 48.3548 24.6632 1274 1
66.2401 44.5545 27.7542 21284 2
64.0134 48.6418 27.3147 18534 2
66.4755 47.1889 27.9297 25875 1
68.1883 45.8002 25.7016 21192 2
69.155 47.6763 28.1203 19439 2
69.7901 48.4207 24.8727 18476 2
69.0343 44.4579 28.848 20308 2
70.7306 45.1843 24.2272 19395 1
71.3385 46.2612 26.5237 19436 2
73.076 45.3274 24.4206 18542 1
73.2708 48.4722 25.193 19445 2
74.9072 46.282 26.4644 20313 2
19.7063 49.3469 25.9118 63274 2
18.1879 52.2197 25.5407 54461 1
20.5177 51.9042 24.5535 63632 2
21.845 49.9093 27.8995 48858 2
20.7236 52.8933 27.4073 63060 2
18.756 50.7157 27.7678 63275 2
24.3132 50.4331 27.1581 63527 1
22.7962 49.7937 24.7643 48669 2
25.8595 51.2566 25.0935 2085 2
22.9781 52.0286 26.0812 63486 1
26.1784 52.2129 28.0918 63483 2
30.6535 48.8599 26.2746 41946 2
26.9268 49.0356 27.2354 63281 2
28.358 48.882 24.8847 41062 1
28.5539 51.1689 26.3305 24951 2
30.347 52.6133 24.7891 2040 1
35.4502 50.1472 24.2886 41077 2
33.036 49.8664 26.1019 41115 1
31.2075 51.4657 26.8953 40237 1
34.5674 51.1712 27.0913 41120 1
33.042 52.8522 25.4812 2048 2
37.3305 48.3129 24.9237 2155 1
39.581 48.8971 26.5527 1294 2
36.8503 52.3954 25.8662 378 2
37.0697 49.7393 26.7274 63642 1
38.7019 50.9643 27.8867 1336 1
39.1885 50.8338 24.4882 18505 2
41.0065 51.4954 26.3726 1339 2
42.4765 49.06 26.778 2200 2
43.1269 53.0999 27.693 1388 2
47.8056 49.0585 25.4549 41079 2
44.5273 51.1225 25.5011 383 2
45.5942 49.5542 27.8582 1295 2
47.1279 51.4194 26.4356 394 1
49.0184 52.1085 24.9038 3092 2
52.479 50.7076 25.7081 25001 2
50.315 51.5395 27.8472 4065 2
52.6649 49.8141 28.1529 1301 1
34.0861 34.0252 23.9306 40976 2
55.5945 51.2389 26.0984 1268 2
53.4063 52.435 27.9786 25885 2
48.9585 18.2406 48.2032 10405 2
58.0797 51.3618 27.3022 1310 1
58.698 49.4998 25.7573 19470 1
59.8862 51.774 25.8968 3150 1
62.414 51.0315 25.8341 19483 2
64.8326 51.201 26.6027 20397 1
64.9014 52.2795 24.5133 18526 1
65.2748 49.4246 24.5775 20344 2
67.5166 48.752 26.114 25042 1
67.4583 51.7261 25.5488 19482 2
70.6357 51.7912 25.7441 19488 2
69.1117 50.2829 27.4241 1224 1
71.6642 49.357 27.4519 2268 2
73.4044 51.5539 25.8259 19532 2
18.107 56.5208 27.5813 50587 1
19.219 54.8668 25.4953 63500 2
21.0804 56.9806 26.6502 48680 2
22.2487 54.557 25.1961 63481 2
24.7584 53.639 26.1678 63235 1
24.2127 56.3158 25.2819 63634 2
22.4982 54.961 27.7082 63046 1
25.3157 55.284 27.9587 63188 2
23.4365 57.0301 27.632 63485 1
26.8978 56.9462 25.675 63479 2
27.5865 54.048 26.0418 2089 2
29.5719 56.8377 25.9024 3022 1
30.4156 54.2602 26.8921 40239 2
31.9558 55.4973 24.3945 42703 2
33.0649 55.3101 26.9758 41977 1
35.0496 55.0636 24.8436 41126 2
35.1479 53.813 27.7571 41170 2
37.296 54.9454 26.1806 477 1
35.9621 56.5858 27.83 376 2
39.6016 53.7457 25.3834 25067 1
39.2354 56.5443 27.1746 3191 2
40.1279 56.5872 24.2636 1343 2
42.4272 53.1941 24.5798 431 2
41.5859 54.9978 26.3039 19545 1
43.3114 56.0962 28.1468 2289 2
41.9044 57.2532 26.0734 481 1
55.7316 18.227 37.0228 20408 1
44.0595 54.7362 25.8867 1386 1
45.9108 53.4609 25.8298 2240 1
47.7684 55.4081 24.8562 1348 2
45.807 55.5073 27.3604 1347 1
48.0891 53.8197 27.3524 1297 2
45.43 57.3217 25.472 1390 2
47.6702 57.0188 27.3148 1393 1
51.0635 53.4984 25.8829 19565 1
50.0467 56.3762 26.6013 20463 2
52.0755 55.3569 24.9797 1399 1
50.5001 54.1195 28.1503 1394 1
52.9219 55.2644 27.9996 1397 2
55.3824 54.3002 26.9575 19469 1
54.4975 56.3651 24.922 20435 2
53.4872 53.5129 25.44 1352 1
57.0365 55.635 25.0587 19517 1
55.2271 56.7279 27.4686 19657 1
55.7609 53.3729 24.4979 19473 1
57.6991 53.4273 25.995 1267 1
59.4749 53.3028 27.8336 19379 1
59.9583 54.6463 25.3931 20390 2
57.9372 55.9432 27.4653 25887 2
61.1711 56.7457 26.5673 25865 1
59.0854 57.1346 25.1991 18630 1
62.2635 53.8034 27.0174 19476 2
65.3563 53.6242 26.8823 19486 2
63.8898 56.5314 26.186 19570 2
63.0712 54.3522 24.1859 18633 2
61.7029 31.3587 74.7409 27937 2
17.6245 55.0949 44.1448 62730 1
67.3761 55.3416 26.6657 19585 1
69.8972 54.7169 26.6872 19524 2
68.9158 56.7725 24.6 19586 2
68.917 57.2566 27.7031 19626 2
68.8766 53.8993 24.6064 19523 1
72.4968 54.0017 26.4485 20402 1
73.439 56.3128 25.294 20444 2
71.0597 57.5336 25.9257 20488 1
74.4889 55.5086 27.7185 20446 1
73.9173 53.1446 27.9408 20447 1
71.8625 54.2015 24.0264 19489 2
18.2705 58.1027 25.5024 63187 2
21.4256 59.4117 25.0369 63438 1
19.3643 60.373 26.5712 63040 1
17.667 37.493 59.3518 9263 1
21.7405 59.849 27.6022 63183 2
24.4246 59.4063 26.0753 63433 2
74.6751 33.9421 36.8645 21112 1
26.2571 58.5928 28.219 53648 2
26.5488 60.8978 27.1565 63042 1
28.9922 59.3138 26.535 63272 2
27.0742 59.8779 24.97 63410 1
29.4501 60.6607 24.231 53557 1
28.9029 61.6682 28.0362 48774 1
31.5158 57.435 27.6954 2982 2
34.0383 57.5832 25.7567 428 2
30.9708 60.6132 27.6301 3012 1
31.5352 58.4883 25.0228 25023 2
33.2489 59.5578 27.2687 24941 1
32.0747 60.9687 25.3152 1382 2
35.107 60.5277 25.5287 24999 2
37.2574 57.647 25.1391 1338 2
38.01 59.3669 27.3783 1385 2
37.7593 60.2982 24.8374 426 1
40.3868 59.5571 25.2975 429 2
40.8651 58.3114 28.0287 2333 1
42.7354 60.8454 25.8913 19607 1
43.4357 58.8399 26.9862 1387 1
43.1226 58.9854 23.9857 479 2
45.6433 60.5371 26.0428 1445 2
48.5067 58.5967 25.1741 1447 2
48.4083 61.2637 25.8753 1444 1
47.5464 59.6457 27.5149 2294 1
51.7445 57.7314 24.8909 491 1
50.7967 60.0275 26.016 19569 2
52.4646 61.5517 24.2093 2342 1
52.766 57.8576 27.3377 1398 2
56.2002 59.0877 26.5438 448 2
53.5361 60.4693 26.4807 24996 1
55.4035 61.6144 27.0022 25862 1
54.7996 61.9147 24.7417 18770 1
53.9707 59.1647 24.3456 20473 2
57.7016 61.1746 25.447 19618 2
59.4128 58.6518 27.3036 444 2
60.6951 60.8639 26.2686 20476 1
17.8452 27.8493 48.6888 62886 1
62.3189 59.1374 25.6066 19572 1
64.4955 59.2327 26.648 19520 1
63.2982 61.4064 25.026 19580 2
62.8618 60.8718 28.0863 19623 2
66.5003 57.8519 25.6977 1420 2
69.3197 59.7704 25.5122 20487 2
67.64 59.6603 27.4594 20483 1
66.2575 61.0641 25.2196 546 2
69.0422 62.067 28.6575 20492 2
74.2743 61.2924 27.4656 20497 2
72.3921 59.7525 25.379 20485 2
73.7325 58.0406 27.6977 20489 2
71.295 61.5537 26.9226 21396 1
17.8585 54.8313 64.9688 13136 2
17.865 62.5635 26.5951 55544 2
21.238 62.3463 25.8071 63425 2
20.8169 65.63 25.5906 54635 2
18.0813 65.2694 26.4717 55588 1
19.2996 63.5415 24.5121 53783 1
19.8837 64.1706 28.2546 63146 2
24.4562 62.3608 26.2176 54632 2
23.1859 64.5055 24.3597 63600 2
25.4929 65.4879 26.5606 63028 2
22.6853 64.6613 27.1069 48872 1
25.834 63.9625 24.3792 63474 1
27.708 62.6958 25.327 63227 2
28.008 65.4844 24.4831 5799 2
28.744 65.1781 27.2286 63176 2
26.835 63.2216 27.8117 63043 1
30.3138 63.0405 26.0448 24954 2
33.6257 62.4603 27.5109 3025 2
33.7878 63.887 25.0349 19499 2
32.0443 64.8773 27.2556 2284 1
30.8277 65.3522 24.5277 5309 2
36.8329 62.1195 27.2707 20458 1
36.6809 62.8091 24.4466 2288 2
38.6894 65.2949 25.4858 2328 2
35.9565 64.7174 26.778 3184 2
38.5119 64.0951 28.2386 1384 2
39.1512 62.2259 26.0671 24937 2
41.5797 61.9421 24.2617 25906 1
41.9461 63.3809 26.7271 1439 2
41.0616 65.73 28.0175 2331 1
40.5009 63.8578 24.4265 2286 1
41.9274 65.7885 25.6792 572 1
24.7486 75.0265 61.6732 9825 1
44.5207 65.4704 26.1333 1442 2
44.5403 62.8322 25.6783 1391 1
47.2719 63.5116 26.6216 1443 2
44.7646 63.3722 27.8662 1438 1
58.9516 74.8248 67.0472 28926 1
46.873 66.067 25.0692 525 1
49.6291 65.9732 25.289 1446 2
50.1148 62.7632 24.5972 19660 2
49.9934 63.5921 27.0866 25036 1
52.7621 66.0558 25.3247 2381 2
52.4648 63.0285 26.6526 19617 2
51.2572 65.7727 28.1618 2388 2
54.893 64.0456 25.5652 19665 1
56.3464 63.7397 27.5831 20518 1
53.8336 64.9449 27.9384 1490 1
57.5273 64.0013 25.2872 20521 2
60.2478 65.3599 25.7441 19670 2
57.8395 65.6855 27.3338 20522 1
59.3734 62.8427 27.3225 20525 2
60.3578 62.6517 24.2503 18729 2
61.8002 63.1423 26.7374 25860 1
64.8607 63.1608 26.1873 19625 1
62.7695 64.0917 24.7958 1455 1
64.7048 65.6268 24.9312 2354 1
63.1376 65.5994 26.8165 19624 1
65.8848 65.4953 27.3778 21433 2
66.9734 63.962 24.9676 602 1
67.1461 62.9012 26.9033 20533 1
69.5587 63.2522 25.6385 20527 2
68.6082 64.6695 28.0224 25854 1
70.4644 65.4419 24.3103 1461 1
72.9949 63.2331 25.4865 19679 2
72.0802 65.8555 26.484 21693 2
74.8622 65.0745 26.2852 22590 1
46.0652 74.6381 37.3119 5430 2
18.7443 67.6194 25.8043 54678 1
19.1594 70.4737 24.3504 54856 2
21.2951 68.6379 25.3586 63142 1
19.8248 70.2638 27.3746 54810 2
20.8272 67.3076 28.061 63177 2
18.0449 67.5004 28.2832 50692 1
23.1918 66.9655 25.8734 63141 1
23.1269 69.4292 27.63 54677 2
25.091 68.0959 26.2044 63140 1
23.8116 69.7679 24.4306 48693 2
25.9047 70.3398 26.5965 63124 1
23.6867 66.7223 28.1127 55685 1
27.8492 68.0026 26.5782 63144 2
26.7249 69.2786 24.5152 55682 1
29.9638 70.1876 26.0257 63139 2
29.5385 67.7832 24.5262 1383 1
33.3481 66.4844 25.5284 24853 1
32.258 68.7183 24.2887 63014 2
31.1302 67.2587 26.9692 63037 2
34.5595 68.5122 25.9122 48819 1
32.9266 69.8655 27.6053 4408 2
34.079 66.9627 27.9319 5806 2
35.975 69.9867 27.2363 3598 1
38.8375 66.6915 27.8327 2332 1
36.9196 67.5854 26.4771 2373 2
38.0985 70.1511 25.2346 4204 2
38.9074 70.0569 27.6013 2419 1
40.4655 67.9877 26.0406 1482 2
42.7309 69.0269 26.345 579 1
43.808 70.9216 25.9233 530 1
42.0895 70.0361 28.5053 1485 1
47.7672 66.3359 27.8548 19614 2
45.4401 68.3214 26.4242 578 2
48.3337 68.3708 25.6879 1528 1
46.8243 70.7425 25.9536 3300 1
48.7576 70.38 24.1925 1535 1
50.0377 67.9763 27.3779 2338 1
51.0894 69.1436 25.0508 1488 2
52.4802 68.0989 27.0179 2427 1
54.1398 68.5183 24.222 19710 2
55.3735 66.5815 26.6968 2430 2
54.2423 69.9304 27.3189 1533 2
56.2292 69.3316 25.9295 2425 1
60.5302 69.1264 25.5199 19718 2
59.3688 67.4743 27.6001 20569 1
58.4456 69.8123 27.0783 25855 1
57.8803 67.4033 25.2705 25882 2
61.9186 67.5698 27.5104 20571 1
62.3736 66.9691 24.7096 18779 2
64.4334 68.1475 26.4455 20529 2
62.983 69.863 27.8155 21735 1
62.9156 70.7234 25.6896 25856 1
68.1082 66.306 25.6362 18736 2
70.1089 68.212 26.4347 25816 1
68.8927 69.4321 24.8514 18741 1
67.4746 68.699 27.2997 22589 2
66.3191 68.3719 24.104 21739 2
73.077 68.8239 25.6252 2592 2
71.0975 70.334 24.7309 21785 1
70.7052 67.8794 24.2665 2396 1
71.8134 67.9534 27.9969 25853 1
74.8185 57.5813 68.7926 28419 1
19.1934 73.4172 27.6629 54859 2
21.8153 73.7983 25.7459 63116 2
18.6158 74.3298 24.9488 63363 2
21.7041 71.0236 25.7639 63128 1
69.8288 18.1266 46.6116 6705 1
23.8828 71.9167 26.7615 63010 1
33.8574 19.4368 23.9986 24988 2
26.165 72.9171 26.8504 48908 1
24.2936 74.3617 27.946 4505 2
26.9172 74.4688 24.6128 3538 1
28.5039 73.4205 27.1756 4507 1
27.6302 71.7987 25.005 63125 2
30.5754 73.277 25.303 3587 2
27.8227 70.962 28.3746 4452 2
30.4622 74.8702 48.5682 26267 2
30.9372 72.1878 28.1266 3543 2
34.871 71.1367 25.575 21775 1
32.4216 71.2555 25.6119 4458 1
33.5818 73.1624 27.4241 3599 2
33.2197 73.3637 24.6526 4512 1
38.569 73.1882 25.1844 22511 2
36.8017 72.0038 26.8907 3597 1
39.157 72.9828 28.056 4520 2
35.7487 74.3281 25.2423 3602 2
42.6925 73.0719 24.5063 577 2
40.9748 71.0585 26.0199 2374 2
42.7487 72.8249 27.6701 1532 2
40.8146 74.2056 26.0143 19699 1
45.3197 73.0181 25.9177 1487 2
47.1944 72.6246 28.2026 2424 2
48.6148 74.5496 26.3768 1531 2
45.5015 74.8093 27.6661 21842 1
49.7174 71.7044 26.3264 2426 2
52.5412 71.7441 25.6164 2431 1
51.3036 73.9585 26.6534 21736 1
52.6482 74.5844 24.6407 22631 2
52.3189 72.1561 27.7991 22630 1
54.174 73.3086 26.8255 21526 1
54.9376 71.7181 24.7153 25821 2
55.4162 74.5621 28.178 21729 1
56.7693 71.946 27.2306 21476 2
55.3186 74.5502 25.0791 12850 1
57.4273 73.4094 24.9934 2432 1
74.8959 36.4666 42.7306 22966 1
58.3057 71.0369 24.641 19667 2
58.1201 74.6434 27.2987 20618 2
60.2427 71.905 26.7199 20619 2
60.2134 73.8972 24.7052 21788 2
65.6073 70.9359 26.3595 20824 2
63.2269 73.3296 26.1832 22588 2
68.5931 71.6306 26.9324 21737 2
66.4894 73.5438 25.2591 21781 2
69.0034 74.5906 26.6347 21787 2
66.5015 73.5978 28.3338 22638 2
69.6357 72.277 24.3353 22688 2
34.9821 47.4808 24.1711 40152 1
71.4103 70.5447 27.4839 22642 2
34.971 21.8387 24.0536 19151 1
71.5142 73.3791 27.0792 25817 1
73.2182 72.3922 25.3567 20834 2
73.9268 72.3047 28.1224 21791 2
19.4386 20.4821 28.6271 1881 2
21.3711 19.2378 31.1219 2716 2
19.4972 21.7896 31.2223 20051 2
18.1024 18.7336 30.8009 59349 2
21.9074 21.0902 29.2845 25064 1
23.3152 18.5458 28.4165 20009 2
26.1724 18.453 30.1373 784 2
24.6033 21.1737 29.3309 24990 2
24.0306 20.6836 32.2308 3701 2
26.671 20.9926 31.2386 2772 1
27.6917 21.1598 28.5716 2717 2
28.8367 19.2195 31.1256 1847 2
30.5262 21.357 29.957 936 1
28.8893 21.8752 31.449 2776 1
34.0422 20.0092 28.5024 2726 1
31.1062 19.0854 29.0915 1891 2
32.9414 20.5684 30.4911 987 1
31.3013 20.3265 32.6186 3653 2
36.4617 18.22 30.647 3659 1
35.9376 18.8679 28.4532 20120 1
38.6073 19.2995 29.1157 21910 2
35.8929 21.1034 30.485 1900 2
38.6736 19.3566 32.0415 3663 2
38.9084 21.8237 31.1884 3662 2
39.7696 21.8627 28.5877 3657 1
43.908 21.3271 28.291 21871 1
41.7181 20.2076 29.7614 22582 2
41.2139 20.4154 32.3843 25771 1
23.3501 74.9225 40.0362 5410 1
45.092 20.0284 30.4855 12875 1
47.9479 20.0147 30.1791 23264 2
46.0851 22.3678 29.4734 4627 2
45.9696 21.7202 32.4816 2791 2
35.4727 66.362 24.0913 24997 2
50.3497 21.2857 30.33 21895 1
51.4808 18.7838 30.2466 3670 2
49.6801 19.4823 32.1751 22528 1
53.4289 19.773 32.0793 21898 1
53.1075 21.409 30.05 2785 2
55.8782 20.7687 28.9279 23127 1
55.8978 20.0607 31.5769 22564 2
54.3365 18.3295 29.2962 22533 2
57.6837 18.5935 28.9055 11602 2
57.9361 21.4591 30.0837 23632 1
58.346 19.3219 32.0688 21893 2
59.7367 19.6829 29.8588 20993 1
60.6126 21.6591 31.4662 20141 2
58.0139 22.1962 32.2666 12459 1
62.0822 20.5749 28.8648 38322 2
17.6021 29.2403 43.5435 4690 1
64.7657 19.966 28.9951 12897 1
63.689 20.3602 31.5084 25850 2
66.9434 20.1552 28.4638 20998 1
66.6106 21.1621 31.0602 11550 2
68.8529 19.1786 29.9943 30802 2
70.6326 20.4031 31.6301 1659 1
71.9206 20.1499 29.5275 22613 2
74.7198 21.2344 30.1966 30808 2
72.9881 19.8896 31.9826 12506 1
72.2064 22.193 31.8108 11516 1
20.7331 23.0199 28.6642 1887 1
18.9042 24.1512 29.3909 1930 1
20.969 25.3235 30.1059 2818 1
20.1623 24.9737 32.6227 2809 2
18.4815 26.9725 29.9962 2763 2
21.9883 22.6102 31.3975 1841 2
23.2727 23.7365 28.7913 1886 2
25.4969 25.9126 29.3091 976 2
25.1154 23.5584 31.3356 2770 2
23.1509 25.4194 31.5703 2820 2
28.1739 25.2007 28.2344 1889 2
27.1023 25.4924 31.2773 21001 1
29.426 24.1126 30.7122 2771 1
27.4022 23.3005 30.0174 24989 1
29.0942 26.279 31.9792 2764 1
31.3301 25.9467 30.0963 1946 2
32.2772 23.1938 30.4052 2775 2
33.6198 25.385 32.2817 2825 2
34.8543 26.0629 29.1376 25028 2
34.893 23.7813 30.6936 2778 1
37.2382 23.7767 29.3933 25025 2
36.6736 23.3266 31.8706 5526 1
36.6952 26.0087 31.5309 2828 2
38.2603 26.0979 29.332 1951 1
41.9417 22.4694 28.3801 3665 1
43.2626 22.6868 30.8273 2784 2
40.2594 24.07 29.8275 23152 2
42.8651 25.7426 30.184 3759 2
41.8696 25.0101 32.4198 2835 1
44.0395 23.8286 28.283 22532 1
45.4901 24.956 30.0499 21900 1
47.1707 24.0369 31.4362 3720 1
46.7369 26.3148 31.8146 2839 1
47.4503 26.666 29.1531 2786 2
49.1635 25.0528 32.084 4629 1
52.5788 24.4007 29.1225 2024 2
49.119 23.7567 29.509 750 2
51.1011 23.612 31.3498 710 1
50.2362 26.48 29.5286 1107 2
52.0073 26.1783 31.8666 2898 2
53.3782 23.869 31.7256 21056 1
54.3798 25.9801 30.1969 42770 1
57.1051 26.4581 30.0408 40027 2
55.8296 23.2402 30.5724 30857 2
57.5682 24.6301 32.1598 2028 1
59.0103 24.1921 30.059 20098 2
61.544 23.4237 29.7609 20104 1
61.7614 25.43 31.2848 20201 1
59.5528 26.6767 31.7812 3827 2
62.1735 25.7949 28.7341 713 2
62.7482 23.3941 31.7803 20096 1
64.23 22.781 29.7132 20100 2
64.5618 25.7552 31.2165 19684 2
69.3117 22.3976 30.7443 12867 2
66.562 24.0694 30.51 12414 1
69.972 25.0787 29.9144 19196 2
67.372 26.6637 29.8206 25879 2
72.5696 25.3266 28.5132 19299 1
70.8465 24.405 32.4934 20160 1
71.7035 22.8867 28.9685 22672 2
74.1932 23.603 28.6523 20157 1
73.3506 24.5388 31.1926 1651 2
20.7634 29.031 28.5786 63546 2
19.0017 29.4665 30.7167 1982 1
21.2616 27.8809 31.6117 2859 2
23.6306 30.1204 29.1927 1018 2
22.9321 27.0801 29.2705 1929 1
24.7898 28.1109 31.3292 1941 2
26.4097 29.3455 29.2123 25059 1
30.07 27.561 28.3045 1949 1
28.0306 27.7112 30.1807 2769 2
28.0841 30.5173 31.4144 2817 2
31.215 28.9942 30.454 2864 2
31.8625 30.4035 28.1305 2872 1
33.4285 27.623 30.6133 24984 1
33.5052 30.8503 30.6625 1993 2
34.9917 28.8938 29.1272 24982 1
36.4132 30.8377 28.5512 4713 1
35.5373 29.0438 31.6986 3752 2
37.5737 28.562 29.328 2831 2
38.5067 29.3967 31.6028 2862 1
40.1574 26.8773 31.1172 4664 2
40.4339 26.9255 28.2424 1958 2
40.0663 29.5519 29.9418 2873 1
42.8184 28.6304 29.1485 2069 2
41.8743 29.0057 32.0598 2879 2
43.8432 31.1738 29.0404 3713 1
43.4774 27.0469 32.6259 2941 1
44.3387 29.872 31.0417 2789 1
45.0283 27.552 30.5813 2006 1
46.9145 29.2882 31.8819 2984 2