ITEM: TIMESTEP    
80000     
ITEM: NUMBER OF ATOMS  
77888     
ITEM: BOX BOUNDS pp pp pp
17.607 132.393    
18.0782 131.922    
22.2837 127.716    
ITEM: ATOMS x y z id type
19.5667 20.6627 23.5181 72779 2
21.4646 21.4402 25.463 977 2
20.8414 18.3287 25.0404 1839 2
74.8684 29.1353 65.3593 29828 1
72.3073 72.793 72.9311 15179 2
17.7413 33.4406 63.6011 24369 1
23.7611 19.2337 24.9671 23170 1
25.462 20.6642 23.9826 72824 1
24.0799 21.5185 25.8465 1848 1
25.7699 20.0482 26.5292 22628 1
22.522 20.4314 22.6694 72830 2
25.8809 18.2199 24.4233 22740 1
28.7705 20.8483 25.4028 20062 2
27.868 19.5741 22.6216 22548 2
62.6514 74.8372 36.3705 22682 1
30.4464 20.7274 23.2669 2719 1
27.0898 22.4704 22.5689 978 1
32.8962 19.398 23.0392 24988 2
31.5608 20.5828 25.3408 43709 1
34.7636 20.4003 24.459 1851 2
32.874 18.1622 26.4257 23637 2
37.2764 20.8585 22.7959 22537 2
37.2449 21.6374 25.7712 1899 2
39.5775 19.1705 22.8238 1904 1
37.1779 18.4999 24.5802 22536 2
39.6295 21.985 22.852 2790 1
40.0157 20.3284 25.1007 1854 2
42.8931 19.2591 25.2675 23128 2
41.5095 20.447 22.803 43666 1
44.768 20.3568 23.092 1099 2
47.7201 20.4005 23.7708 40834 2
45.7882 19.565 26.4662 22576 2
47.8655 21.8601 26.4253 1908 1
50.4756 18.6062 23.5014 38521 2
50.3452 21.2238 23.2738 40893 1
49.5726 19.7826 26.0062 22529 2
52.2264 18.6903 25.8198 22574 1
51.7031 21.5491 25.8098 1110 2
53.0698 20.3811 23.6553 38365 2
55.469 18.7463 23.3535 21944 1
54.9233 19.7731 25.5543 12513 1
57.2715 21.1549 25.5756 13500 1
55.5706 21.695 22.5885 39988 2
60.5974 21.7489 23.1094 31298 2
59.9907 19.4894 25.2482 19184 2
59.6543 22.4124 25.9591 31285 2
60.6525 19.0392 22.6465 31004 1
58.0741 19.8083 22.9265 38509 2
65.4292 18.5698 25.3681 30999 2
64.8502 21.6084 24.9126 21892 2
62.6096 20.4104 24.2446 31021 1
65.1087 19.5805 22.573 30371 1
40.2748 74.8273 30.6391 4519 2
62.9929 18.1145 23.062 31316 1
70.2668 18.3831 26.1812 38366 1
67.393 19.7925 23.6288 31023 2
69.359 21.3452 26.104 19245 2
66.8021 20.7545 26.625 20998 1
67.404 22.1951 24.4509 31293 1
19.4359 18.1855 53.1091 7293 2
71.2323 20.3664 24.4117 30996 2
73.8839 21.49 25.6126 12413 2
73.2859 18.4097 25.4841 21403 2
21.347 24.0947 24.8296 25062 1
19.6815 25.5642 23.5647 970 1
18.6867 23.3747 24.5364 1928 2
20.5985 26.1313 26.3494 1885 2
21.9689 26.1853 23.5959 52493 1
27.3376 39.3881 22.4759 41016 2
20.9761 23.3666 22.2414 19183 2
23.2766 25.7464 25.6834 1888 1
23.7756 23.7141 23.7795 25024 2
25.7683 25.3668 25.0713 1945 1
24.9883 26.8086 22.9373 25061 2
26.528 22.6958 25.2805 1846 2
29.6185 22.9817 24.1171 1895 1
28.898 24.6181 26.2244 1944 2
27.552 24.8913 23.2914 1943 2
30.9373 22.8909 26.2445 25026 1
30.8843 25.7324 24.4912 40920 2
32.6765 24.8904 26.1514 25060 1
32.5552 22.9436 24.2072 989 2
34.2028 26.3379 24.4651 1035 2
34.8454 23.3217 26.4466 25027 2
35.949 23.3958 23.8579 40928 2
37.3395 25.7399 25.2251 2729 2
17.6491 41.732 32.4696 63086 2
39.6108 23.6677 25.0505 3770 2
42.6901 22.5116 24.4495 40934 2
41.7623 25.0571 23.6985 1956 1
41.8195 24.9348 26.1453 2782 1
40.1018 26.545 24.4322 2836 1
44.1742 24.8419 24.0013 41801 1
45.5978 22.6376 25.1628 43705 2
46.7298 25.4471 23.8023 40939 2
47.7632 24.5082 26.1016 1153 1
44.9839 25.6917 26.6029 2837 2
17.5745 65.1343 36.3104 62909 1
49.0656 23.1664 24.4609 40989 2
50.0874 25.9793 25.1951 2020 2
51.9914 23.6472 23.2942 19180 2
52.416 24.5785 26.4886 2024 2
54.7868 22.5496 25.5414 23176 2
53.07 26.4293 24.7191 23642 1
55.2887 25.1238 26.3623 40030 1
54.8564 24.7471 23.5582 40025 2
17.5855 37.1449 25.5758 63539 2
57.5752 25.9971 24.9922 18330 2
57.7335 23.0896 23.6916 38629 2
59.7391 24.9485 25.9584 20148 1
60.4241 24.8829 23.2464 199 2
57.1184 23.468 26.4709 23172 1
62.3762 23.4165 25.2795 19285 2
64.9643 25.2366 26.3465 20106 2
64.8366 23.9256 23.8951 18327 1
17.7399 19.5428 29.7199 59349 2
62.8585 26.4418 24.2216 19229 2
65.9133 26.6441 24.1376 18337 1
69.6544 22.3912 22.8467 31019 2
69.8074 24.3984 24.9609 1065 2
67.765 26.0385 25.6084 19241 1
67.3907 24.6247 23.0807 31294 2
67.3805 23.5994 26.5615 31002 2
71.9566 23.0782 23.7097 12457 1
71.809 26.0584 24.4664 30290 1
73.4036 24.1509 25.1619 43162 1
73.3747 25.1161 22.9873 44079 1
74.5768 22.8262 22.8559 39972 2
20.0195 28.5052 24.373 1933 2
18.4346 27.8127 26.1945 63548 1
74.8948 44.1181 63.8017 29283 2
54.306 74.6292 29.2471 23530 2
21.9177 31.0093 24.5676 1071 2
22.6233 28.2584 25.3212 63545 1
24.6964 29.6199 24.3436 1023 2
25.2111 27.5821 26.5333 1025 2
74.6914 67.1948 59.5388 28888 1
29.3773 27.284 22.7402 41796 1
26.799 29.962 25.5289 40916 1
27.8511 27.322 25.1936 39954 2
28.7306 29.8619 23.8506 19240 1
26.7928 28.5936 22.9631 986 1
30.5768 28.6456 24.6555 983 1
32.4568 28.1094 26.3588 41845 2
33.0208 29.5343 23.7085 41885 2
33.8207 31.1285 26.0275 1033 1
35.7835 28.8537 25.6154 40926 2
37.953 30.5485 25.4139 2010 1
38.4264 30.0836 23.1237 2000 1
38.634 28.4452 25.0529 1083 1
38.1827 27.4181 23.0911 2779 1
69.0619 74.9654 34.9128 5431 1
42.782 27.2588 25.0998 41842 2
41.0289 28.8021 22.7756 1907 2
43.5827 30.1486 24.3221 43703 2
40.8819 29.8793 25.6963 40975 2
43.6744 27.8579 22.5398 1897 1
45.3893 27.5835 24.2498 40985 1
46.8695 29.83 23.841 41032 2
48.3741 27.6248 23.6536 41894 1
47.7123 27.5517 26.4095 40935 2
45.4789 29.0903 26.5766 41849 2
49.1455 29.5387 25.1578 1954 1
50.1882 28.9865 22.8848 42717 1
51.3821 28.3226 25.1312 40996 1
51.73 31.0428 23.9151 1163 2
54.9371 27.7571 26.1503 20144 2
55.8258 27.5195 23.1338 19382 2
53.2564 28.8409 24.091 1105 1
55.57 30.4947 23.5589 248 2
53.918 30.8011 25.7194 1164 2
56.6738 29.6784 26.4852 1973 2
60.0271 27.3886 24.3559 246 1
58.0999 29.2984 24.3462 19231 2
61.4059 29.788 23.5921 2792 2
60.0336 30.9297 26.3086 200 2
61.8723 28.3216 25.8305 19243 1
64.2658 28.8436 24.0772 19242 2
63.5287 30.9542 26.2245 20214 2
68.5493 27.5184 23.1556 30998 2
69.9608 27.7247 26.0875 19186 2
66.9978 28.7633 25.7114 12515 2
69.3857 30.005 24.452 43818 1
66.6244 30.6718 23.5373 30833 2
74.5461 27.4218 23.8062 30993 2
71.3574 29.9335 25.5749 19294 1
73.4109 30.2871 24.3564 43804 1
71.6241 28.3798 23.1328 18339 2
72.7692 27.9084 25.7461 18336 1
74.3575 29.7018 26.9251 19300 2
18.6391 31.4093 24.1851 63536 2
19.0075 34.7008 24.0784 1017 2
20.5506 32.4768 22.5578 74584 1
20.9979 35.1441 26.2986 63543 1
20.2507 32.5372 26.5657 1934 2
21.9041 34.1084 24.1004 1060 2
24.3895 32.5888 25.2107 63681 2
24.5264 34.7857 23.6323 43702 1
26.6541 33.9575 24.5286 1070 1
28.2981 31.9976 25.2603 40965 1
29.008 33.9867 23.3194 1031 2
26.6604 31.7169 22.9966 40917 2
29.9127 33.8637 25.7865 2916 1
30.7949 31.5098 24.4886 1940 2
34.572 33.988 25.8233 24974 2
33.306 32.383 24.132 984 1
31.9976 34.8904 24.2785 1029 2
35.9911 31.5295 24.2098 41893 2
39.151 32.5904 24.0102 1199 2
36.67 34.836 23.7504 41937 2
39.348 35.2324 25.8291 20283 2
37.2173 33.2862 25.8525 1080 1
39.2969 35.3611 23.1886 19202 1
41.4527 31.5027 23.2291 42701 1
41.4125 34.6492 23.9915 2002 1
43.5621 33.0102 22.8781 41848 2
41.8951 32.8544 25.6916 2004 2
44.0702 35.1065 25.0751 2990 2
47.4997 30.925 25.9672 2942 1
47.1673 34.8061 24.3872 2067 2
45.2504 32.259 25.3241 43700 2
69.8434 75.0753 56.8157 27163 1
51.0632 31.0894 26.8967 42715 1
49.2054 32.4068 24.594 237 2
50.0248 35.2729 24.0589 41035 1
51.789 33.6041 25.7201 2022 2
51.3589 33.4407 22.6167 291 1
49.1737 34.7452 26.2802 236 1
56.2785 35.1205 24.9619 19334 1
54.3428 33.487 23.6793 20251 2
57.2315 32.4507 25.3426 2077 2
59.1437 31.5205 23.6849 1109 1
59.4982 33.6364 26.3032 19233 1
58.6594 34.225 23.5536 241 2
61.7559 34.9613 25.478 43165 1
61.2484 35.4478 22.6222 1111 2
61.6159 32.6949 24.3856 1112 2
64.5425 32.6846 23.6764 18380 1
63.9559 33.9449 25.7834 19341 1
64.2244 35.3996 23.4792 19232 2
66.0267 35.2987 25.9374 19339 1
66.4002 32.2648 26.0394 19289 2
66.6423 33.667 23.7253 19288 1
68.7834 32.3008 24.0811 20162 1
68.3882 34.2381 25.7376 19293 1
69.0946 31.3526 26.8459 20158 2
74.0669 32.3254 23.1943 19297 1
71.4618 32.4869 24.4065 19246 2
73.2854 34.8185 23.6949 43988 2
74.4303 32.6432 25.9908 19301 2
71.4785 34.1369 26.8238 19295 2
32.532 75.109 71.0366 13348 2
71.7827 71.372 70.7891 14222 1
20.4042 36.8505 24.7768 63542 1
18.8808 37.411 22.9896 63669 1
19.4485 39.656 24.4722 63537 2
25.5932 61.4548 22.2582 63597 2
23.3192 35.5956 25.9413 1069 1
22.3085 38.4615 26.2194 1979 2
22.8425 37.1828 23.6889 1988 2
24.9588 39.1182 24.6787 2036 2
25.8098 36.3949 25.4474 1075 2
25.2416 37.0411 22.6442 2034 1
29.5561 36.3772 25.5548 1074 2
27.7412 36.6177 23.2102 41015 2
30.0546 38.9374 24.0068 1028 2
27.7885 39.0959 25.7055 1122 2
46.9213 18.0886 37.1331 3723 1
34.9714 37.1452 25.5189 2829 2
32.3273 37.6602 24.8052 1079 1
33.8113 36.4581 23.16 41936 1
67.9236 18.2656 25.8433 30809 1
35.5493 39.851 24.3271 1998 2
37.9992 37.6978 24.5545 41068 2
41.971 35.6886 26.4003 2944 1
41.0185 36.919 24.3468 40988 1
43.3064 38.5166 23.1929 1204 2
42.8157 37.8486 25.7831 2066 1
40.5878 39.6219 24.4492 41984 2
45.2995 37.7917 25.4324 41031 1
48.1915 37.4505 24.8423 330 2
46.2671 39.189 23.2788 286 2
45.3753 36.6078 23.3736 1159 1
52.643 35.8203 23.5331 1155 2
51.3022 36.7505 26.0452 1162 2
50.5058 39.3222 24.7164 290 1
50.2148 37.524 22.6785 40108 2
62.9584 23.0768 22.51 30803 1
53.2825 38.9441 24.662 18473 2
53.963 35.3725 25.8711 1208 1
55.3423 37.2573 23.6704 20297 2
55.3093 39.7365 26.263 388 1
56.4289 37.3602 26.3449 19276 1
60.6916 38.9016 23.0566 18381 2
58.9433 36.348 25.0861 2121 2
57.6323 39.4882 24.6153 18430 2
60.2741 38.728 26.0929 18376 1
57.9957 37.0668 22.3232 288 2
61.6197 37.0669 24.7258 1119 1
62.9162 39.3015 25.591 19286 2
63.704 36.5598 25.9633 20213 1
63.351 38.0783 23.1111 19236 1
65.8175 38.1093 24.5607 19281 2
65.5453 39.8426 26.6526 20260 1
65.1514 39.7623 22.5662 44031 1
70.0708 35.5606 23.9072 19349 2
67.2035 35.984 23.6377 20215 1
68.5644 38.0635 24.3065 19290 1
67.8901 39.4195 26.1297 163 1
70.4317 38.2768 22.8016 18383 1
74.4122 39.0648 23.6641 18489 1
70.5771 38.8145 25.5573 18437 2
72.1866 36.3835 25.648 25899 1
73.942 38.2168 26.1441 19352 2
72.4966 37.5867 23.615 18386 1
18.8153 42.1669 25.4039 63648 1
20.4162 42.1246 23.6429 63678 1
21.3329 41.2043 25.9847 63529 1
21.0393 43.9453 25.6214 63528 2
21.2519 44.2285 22.416 48570 2
22.4075 39.9862 23.9139 2045 1
23.6635 40.9498 26.4158 2039 1
22.8226 42.4478 24.2589 21093 1
25.2257 42.0665 23.3597 41066 2
24.4685 43.4409 26.2905 63091 2
26.7581 41.546 25.8889 2037 2
30.0082 41.4923 25.8645 25055 2
28.2894 42.1833 23.3633 43701 2
28.5929 44.1243 26.2754 2971 2
32.5629 40.2899 24.8331 41941 1
31.261 41.3331 22.4693 41883 2
33.8069 42.56 24.3658 2051 2
34.3824 43.922 26.5575 41940 1
38.1563 40.5114 25.0917 1202 1
38.5795 42.7189 26.0538 41078 1
36.0615 41.975 22.737 2056 1
36.8551 43.9252 24.4812 41939 2
38.1776 40.3453 22.4701 41072 2
35.9875 41.7264 26.543 2053 2
39.7687 43.0279 23.4524 3133 2
42.4317 41.2572 23.514 1200 1
41.2775 42.4472 25.9216 1198 2
73.458 18.2345 56.9226 29068 1
43.6594 40.2867 25.41 25047 1
43.9953 43.4032 25.3816 1251 2
44.9288 41.2299 23.5691 25049 1
46.726 40.9153 25.8983 2119 2
46.62 43.1976 23.6387 1254 2
47.8976 44.0089 26.4675 1253 2
48.8787 41.0238 23.3962 41038 2
49.4028 41.6273 25.8197 2113 1
51.8316 41.7994 24.5576 289 2
49.5808 44.1584 23.9979 340 2
54.5867 43.934 23.2376 1307 1
53.5446 41.7087 26.7155 20299 1
55.3341 41.5695 24.2167 18427 2
55.1843 43.5029 26.0215 39218 1
26.0081 66.7174 22.3897 63411 2
58.3366 41.5988 22.5504 19282 2
57.844 42.8923 25.2359 19337 2
60.5053 41.3012 24.8619 20206 2
59.8252 44.1305 23.9992 1255 1
61.6671 43.9373 26.1605 20298 2
58.8872 40.8024 26.7124 18378 1
61.9641 43.0962 23.4454 18479 1
62.7872 40.6584 23.3878 18379 1
63.9237 42.0916 25.5165 19338 2
63.9906 44.2488 24.1178 18435 1
66.4522 43.928 23.1478 19384 1
66.4242 41.3157 24.2759 18433 2
69.4773 41.1031 23.9288 18439 2
68.2191 43.1446 25.0131 19396 1
69.5611 41.4035 26.667 19340 1
70.5618 43.8035 24.6146 19389 1
72.195 39.9877 23.313 18443 1
71.7484 41.6635 25.2605 20353 1
73.063 43.9734 25.2674 2141 1
74.3043 41.3299 25.1198 20361 2
72.5311 43.0029 22.7181 19401 2
18.2776 44.862 24.7476 63282 2
18.8492 47.6303 26.0603 63280 1
21.0322 46.5992 24.4004 53468 2
39.602 48.4301 22.2211 19416 1
23.7796 45.0709 23.9499 63650 2
23.8185 47.5339 24.5501 2088 1
26.5958 44.1386 24.6023 2969 1
26.3974 46.7547 24.4939 41064 2
28.823 45.6446 23.757 2049 1
29.8786 48.2419 24.0141 41946 2
28.5542 46.6527 25.9506 1131 1
30.8092 44.1086 24.1539 2090 2
33.3907 45.9487 24.0333 2157 2
32.3842 48.1529 24.8196 2922 1
31.0083 46.5152 25.8356 2046 1
35.4844 45.881 26.0547 3952 1
39.2504 46.037 23.432 41124 2
36.5298 46.3822 23.8366 41990 1
38.104 47.2864 25.7629 2159 2
41.8315 44.9224 24.6554 1249 1
39.6282 44.8775 25.9965 2156 1
41.865 47.4011 23.5102 1293 2
40.8643 47.0661 26.1107 1292 1
43.7167 46.2801 25.3829 2162 1
30.4832 18.1137 24.549 23216 2
44.8713 48.2638 23.7541 2169 2
45.878 45.409 24.9048 381 1
45.8874 47.3693 26.2241 21219 1
44.3311 45.3313 23.107 1257 1
47.8692 46.8098 24.7857 385 1
48.4603 48.6192 26.2317 2214 1
26.4836 63.916 22.6765 63474 1
52.7088 44.6823 25.795 25040 2
52.174 44.8081 22.8202 2120 1
52.188 46.7784 24.4046 1345 1
49.9738 47.024 22.7291 1305 2
57.1982 44.502 22.6368 1350 2
55.9692 45.9336 25.1165 1306 2
54.1675 48.5137 25.4794 19428 2
54.5055 46.0413 22.7687 1264 1
23.3942 18.322 30.5396 2718 1
59.0512 45.7547 25.9653 1303 2
59.0199 46.9009 23.0219 20346 2
61.8546 46.2972 23.8648 20338 2
61.5956 46.7071 26.7283 259 1
57.3515 48.5241 26.0085 21280 2
62.8563 48.6643 22.5735 1274 1
63.7002 45.889 25.7483 20304 1
65.1092 46.5293 23.3016 19386 2
66.125 44.7658 25.9168 21284 2
63.8103 48.7484 25.0818 18534 2
66.5855 47.6073 25.1124 25875 1
68.3999 45.8503 23.962 21192 2
69.529 48.1722 26.1174 19439 2
70.2672 48.3549 23.1982 18476 2
74.902 46.1561 25.2972 20313 2
71.6757 46.4261 25.21 19436 2
73.2681 45.7372 22.9273 18542 1
73.4808 48.5611 23.6855 19445 2
70.9309 45.5327 22.6299 19395 1
19.8489 49.2626 24.2998 63274 2
18.5329 51.8062 23.9397 54461 1
21.0288 51.8442 22.6609 63632 2
20.6122 52.5406 25.8388 63060 2
18.7123 50.4714 26.6079 63275 2
25.3858 49.4065 24.4061 63527 1
22.6834 49.3351 22.9009 48669 2
25.8806 51.6173 26.0374 63483 2
22.5271 49.7622 25.975 48858 2
26.4056 51.5851 23.2566 2085 2
23.2973 51.7181 24.2406 63486 1
27.55 49.171 22.9793 41062 1
27.6867 49.3598 25.9022 63281 2
29.3952 51.4176 24.0101 24951 2
35.0272 48.3879 24.9822 2095 2
31.5338 52.4465 22.7316 2040 1
32.0575 50.2094 23.2354 41115 1
31.9266 50.666 25.4601 40237 1
34.928 51.1167 25.8816 41120 1
33.71 52.6524 24.1103 2048 2
37.4546 48.8454 23.4731 2155 1
37.0806 52.2351 24.3562 378 2
37.1529 49.7391 25.7612 63642 1
38.6186 51.0882 26.8394 1336 1
74.8756 66.9992 67.2529 25282 1
39.9474 49.4031 24.8063 1294 2
41.8869 52.7346 22.6551 431 2
40.0749 52.4498 25.0646 1339 2
42.5805 50.1583 25.2266 2200 2
21.7666 74.8258 54.9735 62632 2
47.7288 49.3897 23.1199 41079 2
44.4867 51.6869 23.1515 383 2
45.71 49.9604 26.1188 1295 2
46.8213 51.8341 24.486 2240 1
48.645 50.7241 25.3496 394 1
50.8047 49.0933 24.9704 2213 2
49.3527 52.1702 23.1751 3092 2
52.4486 51.247 23.9332 25001 2
52.6685 50.456 26.3794 1301 1
50.5911 52.1589 26.6443 4065 2
50.5299 49.929 22.4467 1351 1
56.2183 48.2452 23.2048 19426 2
55.368 51.072 24.0292 1268 2
53.4536 53.2871 26.4119 25885 2
60.3582 48.6768 24.9725 2172 2
57.7344 51.5198 25.5401 1310 1
58.0928 49.8965 23.8117 19470 1
59.5982 51.7298 24.0757 3150 1
62.4155 51.218 23.9844 19483 2
65.2666 51.1444 24.6545 20397 1
64.8382 52.1977 22.5119 18526 1
65.6976 49.4495 22.655 20344 2
68.0115 49.2571 24.0118 25042 1
67.522 52.0624 24.1513 19482 2
70.4138 51.3462 23.5242 19488 2
69.171 50.9376 25.9021 1224 1
66.5623 49.8293 26.6378 20351 2
71.9289 49.8615 25.8317 2268 2
72.9943 51.6907 23.8796 19532 2
73.8648 52.7943 26.248 20447 1
68.9532 53.72 22.5395 19523 1
19.0187 54.5133 23.7831 63500 2
20.6364 56.9039 24.8068 48680 2
24.653 53.568 24.243 63235 1
22.106 54.0602 23.7278 63481 2
23.5328 56.4539 23.3727 63634 2
25.1569 54.9029 26.3266 63188 2
23.42 56.9073 26.203 63485 1
22.1823 55.0336 26.244 63046 1
58.669 27.1894 22.4234 19227 1
26.4287 57.0497 24.4399 63479 2
27.7094 53.7143 25.0179 2089 2
28.9447 56.1448 24.1938 3022 1
31.34 74.8889 36.3633 5366 1
30.6989 57.6201 23.1631 25023 2
30.8153 54.1245 25.0778 40239 2
33.3512 55.1614 25.3664 41977 1
31.3181 57.28 26.0862 2982 2
34.0261 57.549 24.1977 428 2
33.8128 57.2738 27.0657 20410 1
27.7477 18.156 61.8363 9073 2
35.3596 54.9856 23.4688 41126 2
37.608 54.8619 24.7202 477 1
36.2063 56.8823 25.9625 376 2
37.1945 57.2496 23.0521 1338 2
39.1828 54.1285 23.1505 25067 1
35.6038 53.9446 26.7164 41170 2
39.1545 56.4348 25.5612 3191 2
43.1617 53.072 25.4937 1388 2
43.1951 55.3979 23.0292 435 2
41.2916 55.0328 24.5674 19545 1
41.9426 57.2461 24.3324 481 1
43.3373 56.0675 26.3401 2289 2
45.3676 54.0705 24.267 1386 1
47.1284 53.4208 22.8393 438 1
47.4606 55.9653 22.7847 1348 2
45.9321 55.633 25.955 1347 1
44.8589 57.5645 23.9858 1390 2
48.1411 54.1602 25.4414 1297 2
47.1956 57.5289 24.9974 1393 1
49.7637 56.9489 24.8918 20463 2
50.9988 53.7738 24.601 19565 1
50.6666 55.1798 22.5185 1392 2
52.4706 55.5881 24.7665 1399 1
51.7488 57.7359 23.2024 491 1
55.4647 54.4715 24.6928 19469 1
54.4106 56.5476 23.0869 20435 2
55.0839 56.0922 26.3261 19657 1
53.4529 53.8591 23.4701 1352 1
57.0955 55.7133 23.2217 19517 1
72.1663 74.9007 39.2494 22691 1
57.5615 53.3696 24.1266 1267 1
59.2597 53.3956 26.1923 19379 1
59.8295 54.6097 23.7013 20390 2
58.1614 56.103 25.7912 25887 2
61.0613 56.634 24.9075 25865 1
59.0152 57.406 23.6053 18630 1
62.9083 54.2015 22.5522 18633 2
62.0635 53.9872 25.487 19476 2
65.2485 53.6761 25.4737 19486 2
63.8502 56.446 24.6775 19570 2
65.9864 54.6681 22.6839 19581 2
67.4245 54.8899 24.8631 19585 1
69.8873 54.0081 25.2917 19524 2
69.0811 56.4001 22.9287 19586 2
69.129 56.9319 26.3315 19626 2
28.2095 74.7815 59.7874 8995 2
72.4173 54.218 25.0463 20402 1
73.8435 56.2775 23.6389 20444 2
71.3228 56.7691 24.5601 20488 1
74.3116 55.2409 26.2776 20446 1
71.5495 54.3425 22.6406 19489 2
18.7389 60.202 22.7765 53700 2
21.3176 59.414 23.7088 63438 1
19.5598 59.8254 25.3337 63040 1
17.9135 57.7386 24.4387 63187 2
24.2617 59.2548 24.3483 63433 2
22.8623 61.2094 22.6862 63598 1
21.9743 59.418 26.463 63183 2
26.4548 60.6324 26.1032 63042 1
28.7039 59.1654 25.2769 63272 2
28.8455 59.829 22.7575 53557 1
26.6798 59.4049 23.2886 63410 1
28.7454 61.6485 26.8514 48774 1
33.3954 59.4602 26.0633 24941 1
32.0479 60.0267 23.6313 1382 2
31.031 60.4942 26.124 3012 1
34.0235 62.0906 26.4338 3025 2
35.3503 60.1783 24.24 24999 2
37.9753 59.4155 25.4534 1385 2
37.369 60.1904 22.6589 426 1
42.7186 59.5388 22.8174 479 2
39.8919 58.9961 23.2209 429 2
40.7002 58.4966 25.9992 2333 1
41.7436 60.6848 25.0142 19607 1
43.3421 58.9361 25.7877 1387 1
45.6545 60.4729 24.9321 1445 2
48.0479 59.2861 23.5378 1447 2
48.209 61.7994 24.7533 1444 1
48.1243 59.1756 26.3486 2294 1
50.6738 60.0188 24.9794 19569 2
52.933 58.1157 25.4554 1398 2
56.1068 58.5324 24.8685 448 2
53.4111 60.7461 25.64 24996 1
53.9945 59.7128 22.9662 20473 2
57.9087 61.0187 23.5277 19618 2
59.629 58.8675 25.6042 444 2
60.7309 61.0577 24.6229 20476 1
62.2779 59.0758 24.2478 19572 1
64.4261 59.2709 25.1216 19520 1
63.3571 61.2474 23.3507 19580 2
17.5558 30.49 55.1138 8330 2
66.6572 57.4087 24.6578 1420 2
69.3566 59.3575 24.2324 20487 2
67.5281 59.3505 26.2913 20483 1
66.5144 60.6901 24.2586 546 2
74.7423 61.011 25.5575 20497 2
72.4489 59.11 23.7963 20485 2
73.7418 57.9838 26.3369 20489 2
71.6776 61.2883 25.3294 21396 1
70.6504 61.2745 22.8763 19632 1
17.7515 62.1204 25.037 55544 2
20.9115 62.0637 24.5093 63425 2
21.0981 65.1005 23.9585 54635 2
18.3112 64.8445 24.7163 55588 1
19.2517 63.4749 22.7738 53783 1
24.2387 62.169 25.2181 54632 2
23.8553 63.8307 23.11 63600 2
25.7066 64.9833 25.0271 63028 2
22.8643 64.458 25.9844 48872 1
27.5738 62.0396 24.3096 63227 2
28.8389 65.1088 23.2002 5799 2
29.0088 64.4852 26.056 63176 2
26.7006 63.2426 26.7486 63043 1
30.6157 62.585 24.4091 24954 2
33.8143 62.6751 23.4416 19499 2
31.9527 64.1137 26.1016 2284 1
33.5603 64.9852 24.6492 24853 1
36.7277 61.8135 25.9995 20458 1
39.3072 61.9867 24.3878 24937 2
36.8752 62.6756 23.2684 2288 2
38.7166 65.2123 24.0626 2328 2
36.001 64.4141 25.661 3184 2
35.447 65.6594 22.6946 24997 2
38.1817 66.32 26.5902 2332 1
41.8315 62.1752 23.0107 25906 1
40.5141 63.9843 22.8114 2286 1
41.6199 63.4918 25.6573 1439 2
43.8552 65.6965 24.9762 1442 2
41.5504 65.9235 24.367 572 1
40.4124 75.0377 73.452 13315 2
43.9338 62.6614 24.5798 1391 1
46.9333 61.9885 22.7059 1395 1
46.4561 63.939 25.0361 1443 2
48.2378 65.9417 22.9576 1446 2
45.6711 66.1803 22.8199 525 1
50.0291 63.0204 23.0768 19660 2
49.1526 64.0514 25.4428 25036 1
51.7333 65.5786 23.3875 2381 2
51.6416 63.0497 25.7701 19617 2
52.6589 62.0778 23.5089 2342 1
55.4585 61.585 24.9641 25862 1
54.3113 64.2217 23.9746 19665 1
56.1716 63.6768 26.1159 20518 1
53.702 64.7179 26.4761 1490 1
57.0955 64.0108 23.6218 20521 2
66.3661 74.5259 45.571 26222 2
60.1455 65.3066 24.1453 19670 2
57.7663 65.6043 25.81 20522 1
59.2496 62.9078 25.5464 20525 2
60.4059 62.6515 22.6599 18729 2
61.9172 63.3219 25.1592 25860 1
64.5928 63.173 24.6446 19625 1
62.8477 64.0538 23.1698 1455 1
64.8733 65.5441 23.3933 2354 1
62.8815 65.5235 25.4728 19624 1
65.9197 65.7115 26.1412 21433 2
66.8996 63.2116 23.0441 602 1
66.7186 63.0962 25.5408 20533 1
67.928 65.8005 24.383 18736 2
69.7385 63.1537 24.2313 20527 2
70.4939 65.6515 23.0066 1461 1
74.4502 65.5809 24.7836 22590 1
73.0531 63.1578 23.8126 19679 2
71.6715 65.5657 25.1696 21693 2
44.4652 61.7855 22.4045 483 1
17.7735 69.5584 24.9074 63016 1
18.5627 66.7967 26.4707 50692 1
19.3769 67.1368 24.1866 54678 1
19.5575 69.4925 22.7835 54856 2
21.581 68.0489 23.6684 63142 1
21.286 67.1198 26.2643 63177 2
24.0794 66.6077 26.9682 55685 1
22.2242 70.664 23.6793 63128 1
23.514 66.5657 24.2693 63141 1
23.3204 69.1719 25.8177 54677 2
25.4533 67.7864 24.9143 63140 1
25.481 70.5315 24.7495 63124 1
24.2831 69.0551 22.775 48693 2
28.0769 67.2914 25.5512 63144 2
27.0234 69.142 23.4954 55682 1
29.8278 69.6337 24.3692 63139 2
28.7291 67.7059 22.6274 1383 1
31.1511 66.763 25.0027 63037 2
33.4419 67.4565 24.0425 48819 1
32.4529 69.7811 23.874 4458 1
33.3772 69.3815 26.3444 4408 2
35.5183 70.2816 24.3727 21775 1
36.3403 67.5681 24.9809 2373 2
38.1188 69.8318 23.5148 4204 2
38.8808 70.3698 26.4238 2419 1
39.843 67.9876 25.1679 1482 2
40.6354 68.6734 22.6548 526 1
42.7909 68.5335 24.8821 579 1
43.9956 70.0609 23.4895 530 1
74.8779 35.8017 37.4356 3940 2
45.6572 68.0548 24.706 578 2
48.0796 66.6254 26.2157 19614 2
48.4555 69.0223 24.3997 1528 1
46.5953 70.4847 23.9919 3300 1
44.4021 70.3585 26.1411 1483 2
59.5989 74.6348 67.1522 28926 1
50.1364 67.2702 24.5075 2338 1
51.3692 69.5036 23.7239 1488 2
52.6982 67.6355 25.0353 2427 1
50.512 69.1177 26.4716 24995 2
55.1648 66.5788 25.0026 2430 2
54.0354 69.6661 25.8419 1533 2
55.9427 69.4382 24.204 2425 1
53.9269 68.187 22.6831 19710 2
60.7709 69.0626 23.4872 19718 2
59.2165 67.3696 25.7576 20569 1
58.6169 69.8163 25.141 25855 1
57.6211 67.4363 23.3525 25882 2
61.7359 67.5357 25.4226 20571 1
62.5278 66.6762 22.7692 18779 2
64.2737 67.9941 24.5898 20529 2
62.9516 69.8599 26.2844 21735 1
63.1379 70.7565 24.0138 25856 1
21.0883 18.45 40.6918 4553 2
66.3321 68.3392 22.7058 21739 2
69.9363 67.8786 25.0747 25816 1
69.1186 69.6482 23.5722 18741 1
67.2793 68.6288 25.7345 22589 2
74.2019 18.3184 38.3604 10700 2
73.3127 68.6871 24.0646 2592 2
72.0734 67.9087 26.3054 25853 1
70.8498 68.1558 22.7876 2396 1
20.2751 70.5165 25.6559 54810 2
17.6116 55.2499 43.0192 62730 1
18.9213 73.6862 25.865 54859 2
18.4787 71.8987 23.9727 63105 1
21.3408 73.2365 23.9456 63116 2
18.8758 74.3224 22.7771 63363 2
33.3049 48.4219 22.2346 2092 1
75.0326 65.4095 47.6207 25304 1
23.2528 72.073 25.3553 63010 1
24.3668 72.3427 22.746 63118 2
25.7024 72.7877 25.3854 48908 1
26.5156 74.4272 22.7097 3538 1
29.1332 73.1312 25.3287 4507 1
27.4717 71.9775 23.5018 63125 2
29.0249 74.1867 22.9119 24854 1
27.9236 70.6661 26.3431 4452 2
31.2959 71.6174 25.9118 3543 2
30.8874 72.1367 22.8455 3587 2
33.7705 71.8004 23.5515 4512 1
32.7952 74.338 24.3473 3594 2
34.3137 72.403 26.0751 3599 2
36.0588 73.4502 23.709 3602 2
39.0307 72.8289 23.276 22511 2
37.2083 71.8713 25.3309 3597 1
39.6996 73.0102 26.2658 4520 2
41.2105 70.878 24.3029 2374 2
42.8956 73.4004 25.8595 1532 2
42.604 72.6725 22.8209 577 2
40.9162 74.3794 24.0088 19699 1
45.1512 72.7918 23.7126 1487 2
48.0073 74.7526 24.9627 1531 2
53.8594 18.2416 41.6826 4579 1
48.9876 71.7182 24.6123 2426 2
51.5576 71.4741 25.1859 2431 1
50.9162 73.543 25.0237 21736 1
52.9957 74.5701 23.5221 22631 2
54.368 71.346 23.1808 25821 2
55.3073 73.7774 24.736 21729 1
56.5841 71.6182 25.498 21476 2
56.6732 73.2914 22.7517 2432 1
53.4408 72.6451 25.3898 21526 1
58.4645 73.7814 24.8807 20618 2
60.8026 71.8312 24.6539 20619 2
60.703 73.867 22.6044 21788 2
58.252 71.1474 22.8593 19667 2
59.0464 71.7345 26.4991 20616 1
74.9818 66.49 40.1074 23451 2
65.71 70.8353 24.6919 20824 2
63.7049 73.3494 24.3034 22588 2
17.729 51.2128 40.2162 62852 2
67.2944 70.9776 22.5973 21740 1
68.696 71.7997 25.3347 21737 2
66.6307 73.3653 23.4469 21781 2
69.8404 72.485 22.7141 22688 2
66.6009 73.4234 26.8293 22638 2
71.2997 70.4541 25.7567 22642 2
71.4372 70.446 22.899 21785 1
71.2006 73.7401 25.443 25817 1
72.9906 72.4495 23.8299 20834 2
73.6033 72.4118 26.8133 21791 2
55.6126 53.6996 22.3679 19473 1
74.9157 27.4573 44.1449 9382 2
19.3174 19.9729 27.2627 1881 2
20.8647 19.1157 29.7831 2716 2
21.5948 21.3513 28.3148 25064 1
19.4412 22.2172 29.9274 20051 2
74.9631 36.1468 67.7539 29142 1
25.6065 18.6692 28.9025 784 2
23.0296 19.3023 27.7597 20009 2
24.4865 22.0003 28.4562 24990 2
26.6669 21.1011 30.3931 2772 1
27.5505 21.5002 27.9157 2717 2
28.6289 19.0005 29.5375 1847 2
29.2905 21.3517 30.049 2776 1
33.3813 21.0947 26.7853 2726 1
30.7269 20.2788 27.74 1891 2
33.5306 20.259 28.9622 987 1
31.5498 20.1227 30.7992 3653 2
35.1187 19.4042 26.9938 20120 1
36.0919 18.2878 29.0089 3659 1
38.2409 19.2151 27.5039 21910 2
39.1458 21.7536 27.4337 3657 1
36.1075 21.3285 28.8925 1900 2
38.6416 19.2425 30.6776 3663 2
39.3042 22.1346 30.0449 3662 2
41.5143 22.381 26.7795 3665 1
41.3023 20.2821 28.1829 22582 2
43.7817 20.9601 27.1469 21871 1
43.1696 22.1618 29.623 2784 2
43.7234 19.4167 31.3221 3667 2
45.1484 20.1977 29.3781 12875 1
48.1057 20.3012 28.6182 23264 2
46.042 22.4833 28.1806 4627 2
50.9963 18.3098 28.2161 3670 2
50.7841 20.717 28.7004 21895 1
50.0457 19.2103 30.563 22528 1
52.6428 19.7632 29.9691 21898 1
48.3192 22.853 30.5341 2736 2
55.828 20.9481 27.5719 23127 1
53.1418 21.6818 28.1839 2785 2
55.3673 20.5235 29.9369 22564 2
54.207 18.3959 27.8178 22533 2
57.682 18.7453 27.0681 11602 2
61.0382 18.6636 29.8971 22527 2
57.9624 21.4727 28.3597 23632 1
58.0725 19.4548 30.392 21893 2
59.8301 20.0185 27.9427 20993 1
60.5897 21.8241 30.0501 20141 2
62.0818 20.8457 27.0169 38322 2
63.1361 18.5365 28.0396 12512 1
64.6385 20.329 27.4693 12897 1
63.6963 20.6118 29.9392 25850 2
65.6917 19.1148 31.1221 31025 1
66.6975 21.2128 29.2683 11550 2
68.8907 19.4679 28.1955 30802 2
70.3665 20.7681 30.202 1659 1
67.6399 74.9979 67.029 29885 2
71.8151 20.0229 27.804 22613 2
74.548 21.5619 28.7551 30808 2
72.8873 19.7493 30.3756 12506 1
74.2964 18.2543 28.5192 12895 2
72.0826 22.3085 29.9982 11516 1
19.3242 22.7193 27.0888 1887 1
19.5719 24.5924 28.5099 1930 1
21.4388 26.052 29.1329 2818 1
24.4847 23.8857 26.4446 1884 1
22.0267 23.6698 27.4089 1886 2
22.2409 23.1988 30.1991 1841 2
23.8065 25.5149 28.6451 976 2
25.526 23.5102 30.8042 2770 2
26.5534 24.5288 28.1058 1889 2
29.7387 23.0955 28.3182 936 1
29.0368 25.4157 28.9387 2771 1
28.0547 23.2296 30.3716 24989 1
32.4831 22.8408 28.6458 2775 2
31.518 25.6837 28.2807 1946 2
33.5766 25.2271 30.5184 2825 2
34.9679 25.9899 27.4481 25028 2
35.17 23.8266 29.1054 2778 1
31.0358 23.138 31.1597 2724 2
37.6878 24.0229 27.8164 25025 2
36.8423 23.3145 30.559 5526 1
36.7875 25.9929 29.9523 2828 2
37.4205 27.0516 27.4334 1951 1
43.5635 23.4287 27.0313 22532 1
40.2071 24.2975 28.1844 23152 2
42.6345 25.5251 28.8259 3759 2
41.3562 23.7712 31.0298 3717 1
39.9503 27.0965 26.83 1958 2
44.9398 24.4921 29.4081 21900 1
47.3685 25.1946 28.6185 2786 2
46.149 26.3756 30.7367 3720 1
48.2463 25.3665 31.1344 4629 1
49.8072 23.2335 27.7739 750 2
50.1495 26.1773 28.2665 1107 2
50.4372 24.511 30.3882 710 1
52.5033 24.0693 29.2635 21056 1
54.1416 26.0197 28.1844 42770 1
57.0873 26.3627 28.0347 40027 2
55.6747 23.6473 28.6536 30857 2
55.063 25.6807 30.6845 1056 2
53.9892 22.8543 30.619 2851 1
57.9026 22.5123 30.4865 12459 1
57.5395 24.939 30.4247 2028 1
59.1548 24.1136 28.3309 20098 2
61.7807 23.2397 27.8863 20104 1
61.6406 25.0452 29.7127 20201 1
62.0703 25.9501 27.2039 713 2
62.9843 23.2356 29.9931 20096 1
64.5641 23.0236 27.918 20100 2
64.3796 26.0089 29.4787 19684 2
65.2563 23.5263 30.9961 25880 2
66.7138 24.2334 29.0134 12414 1
69.2866 22.8252 28.9515 12867 2
69.8171 25.6698 27.9444 19196 2
68.1496 25.1397 30.8331 12419 2
67.0551 26.7453 28.1857 25879 2
74.5796 23.1456 30.923 12890 1
72.409 25.6122 26.7786 19299 1
70.9125 25.0411 30.4946 20160 1
71.6804 22.9025 27.1877 22672 2
74.3567 23.6701 27.1968 20157 1
73.3209 25.0102 29.3821 1651 2
17.7594 30.5086 27.2309 1936 2
20.6268 29.4657 27.0689 63546 2
18.8294 27.2874 28.8046 2763 2
19.4574 30.0458 29.4071 1982 1
21.5454 28.444 30.4118 2859 2
23.6151 30.5311 27.3196 1018 2
22.6416 27.5791 27.5678 1929 1
24.4811 28.4991 29.6293 1941 2
26.3508 29.4067 27.898 25059 1
29.1813 29.791 26.8527 1947 2
29.8436 27.2088 26.8642 1949 1
27.631 27.4578 28.7435 2769 2
30.7014 28.4846 29.2586 2864 2
28.1454 30.6125 29.6616 2817 2
31.9047 30.4146 27.3598 2872 1
34.555 29.6312 27.9564 24982 1
33.5192 27.7036 28.9001 24984 1
33.0796 30.6838 29.823 1993 2
35.4516 28.7052 30.4196 3752 2
37.579 29.5023 28.0594 2831 2
38.4911 29.4476 30.3717 2862 1
39.6154 27.0475 29.543 4664 2
36.2657 31.2828 29.6168 1991 1
40.2349 29.7049 28.44 2873 1
42.6971 28.3611 28.1027 2069 2
43.6273 27.4442 30.806 2941 1