ITEM: TIMESTEP    
65000     
ITEM: NUMBER OF ATOMS  
77888     
ITEM: BOX BOUNDS pp pp pp
17.607 132.393    
18.0782 131.922    
21.4242 128.576    
ITEM: ATOMS x y z id type
21.1759 18.9624 24.1268 1839 2
19.2662 20.7715 22.7817 72779 2
21.6362 21.9613 24.3492 977 2
19.1929 20.8895 25.6005 20053 1
17.9094 18.4597 24.2659 1932 2
22.3425 20.6847 21.6579 72830 2
23.7452 19.8127 23.9281 23170 1
25.3396 21.1213 22.8234 72824 1
24.2577 21.9054 24.9949 1848 1
25.7597 18.7487 23.3118 22740 1
25.8807 20.2208 25.2544 22628 1
29.2458 20.801 24.8954 20062 2
27.9755 19.6707 22.3878 22548 2
62.5822 66.3915 21.6466 18779 2
30.514 18.258 23.4733 23216 2
30.7183 20.9417 22.4658 2719 1
33.2394 19.5378 21.8587 24988 2
32.2043 20.5859 24.3842 43709 1
34.9226 20.5364 23.9269 1851 2
32.9489 18.3254 25.4746 23637 2
37.3972 20.6672 22.0173 22537 2
37.3413 21.8843 25.0119 1899 2
39.3272 18.9643 22.0251 1904 1
37.4061 18.4822 24.0651 22536 2
40.0078 20.4857 24.3716 1854 2
42.7594 19.4076 24.8239 23128 2
42.2484 22.4715 22.8605 40934 2
42.1547 18.3845 21.8185 23153 2
41.6855 22.2189 25.7092 3665 1
44.6616 20.2298 22.5697 1099 2
47.518 20.5094 22.7635 40834 2
46.0261 19.6063 25.5366 22576 2
47.6357 22.0582 25.1606 1908 1
50.3123 18.9211 22.3867 38521 2
50.3351 21.5572 22.2223 40893 1
49.4735 20.2077 25.0478 22529 2
52.0842 19.3398 24.9969 22574 1
51.3884 22.383 24.7803 1110 2
52.7654 20.7077 22.6888 38365 2
56.7801 20.031 24.203 13500 1
55.3971 19.2531 22.4954 21944 1
54.4547 19.7777 24.7771 12513 1
60.578 21.5278 22.7207 31298 2
59.4751 19.2122 24.3385 19184 2
59.177 21.9415 25.7584 31285 2
60.9025 19.0346 21.99 31004 1
57.9938 19.779 21.8992 38509 2
64.7978 18.5523 24.6178 30999 2
65.203 21.5844 24.304 21892 2
62.9902 20.1861 23.1931 31021 1
65.1097 19.4536 22.0383 30371 1
62.2625 18.2667 24.4202 31001 1
66.8617 20.2185 25.915 20998 1
67.7153 19.9024 22.8572 31023 2
69.2438 21.1193 25.0761 19245 2
70.4099 18.3664 25.4288 38366 1
17.7245 51.2035 74.7494 13999 1
74.9512 36.2327 67.7684 29142 1
71.1743 20.4274 23.5596 30996 2
17.7213 68.9705 66.4704 12325 1
73.8949 21.6349 24.48 12413 2
70.8271 72.6036 74.5509 26052 1
74.9425 45.0953 74.4958 27825 2
21.2803 24.7476 24.2567 25062 1
19.6371 25.593 22.5772 970 1
18.1635 23.3881 23.8411 1928 2
18.6337 25.8295 25.4186 1883 2
22.2192 26.4931 22.7982 52493 1
20.5228 23.3285 21.8649 19183 2
23.4329 25.8789 24.7639 1888 1
23.9824 23.7705 22.9503 25024 2
25.2544 26.7064 22.4163 25061 2
24.8941 24.1758 25.6658 1884 1
27.1834 22.4265 21.6967 978 1
26.5749 25.5438 24.8418 1945 1
27.0284 22.8374 24.3736 1846 2
29.6507 23.0076 23.0461 1895 1
29.2774 24.6986 25.4566 1944 2
27.8032 25.133 22.3148 1943 2
30.8865 25.5075 23.5753 40920 2
31.4947 22.6457 25.2557 25026 1
32.3834 24.8458 25.6965 25060 1
32.7105 23.0694 22.9261 989 2
34.224 25.9652 23.4539 1035 2
34.7017 23.5979 25.5404 25027 2
35.8585 23.3194 22.7306 40928 2
37.0373 25.7714 24.1332 2729 2
39.7193 24.0616 24.4467 3770 2
39.3691 22.4368 22.2558 2790 1
39.777 26.6525 23.3172 2836 1
41.4454 25.346 22.5266 1956 1
42.2633 24.631 25.0713 2782 1
43.6964 24.8621 22.9178 41801 1
45.2905 22.8544 24.026 43705 2
46.3253 25.6001 22.4427 40939 2
47.2924 24.5426 24.8915 1153 1
44.901 25.7277 25.3453 2837 2
49.0607 23.551 23.3036 40989 2
50.2944 25.9169 24.5527 2020 2
51.8798 23.832 22.322 19180 2
74.7484 48.2259 65.973 29144 1
54.6644 22.5243 24.2908 23176 2
52.852 25.1858 24.4371 23642 1
54.982 24.9295 25.5104 40030 1
55.0537 24.8204 22.5749 40025 2
72.0607 18.1716 21.7401 30343 2
57.6446 22.7015 23.1296 38629 2
57.3772 25.9419 24.1106 18330 2
59.6412 24.652 24.997 20148 1
60.4615 24.5654 22.2537 199 2
60.0949 26.8508 24.0631 246 1
62.8126 26.4827 23.29 19229 2
62.3547 23.1366 24.3751 19285 2
65.0699 25.027 25.2096 20106 2
64.5183 24.1935 22.9735 18327 1
63.0269 22.9193 21.4759 30803 1
67.5454 22.5057 23.2224 31293 1
69.8967 22.3203 22.0653 31019 2
67.4686 23.1884 25.9732 31002 2
69.7665 24.4927 24.3291 1065 2
67.6127 25.9503 24.5706 19241 1
67.3221 24.9054 22.1722 31294 2
71.9816 23.122 23.6421 12457 1
71.7357 25.9532 23.5076 30290 1
73.8567 24.4619 23.9714 43162 1
74.2632 27.1586 22.7784 30993 2
74.9603 38.9285 67.826 29358 2
71.9811 25.3713 25.9029 19299 1
20.064 28.1424 23.6961 1933 2
18.4313 31.0102 24.166 63536 2
19.968 30.4293 22.038 72807 1
21.6946 31.4865 23.865 1071 2
17.8581 29.498 21.6896 63688 1
18.57 28.6767 25.8991 63548 1
22.7042 28.3762 24.3635 63545 1
24.8161 29.716 23.1491 1023 2
22.383 29.101 21.7467 975 2
25.5985 27.9807 25.4182 1025 2
27.3975 29.9707 23.8933 40916 1
28.412 27.2674 23.8936 39954 2
30.6618 28.4185 23.0627 983 1
29.019 29.6936 22.2067 19240 1
27.0784 28.3103 21.7321 986 1
32.2448 27.8397 24.9965 41845 2
33.274 29.5852 22.4369 41885 2
33.2005 30.4407 24.8132 1033 1
35.3034 28.5924 24.561 40926 2
37.512 30.7875 24.8553 2010 1
37.9773 30.1168 22.709 2000 1
38.1305 28.3928 24.5072 1083 1
38.0354 27.613 22.0292 2779 1
42.424 27.3269 24.3534 41842 2
40.6315 29.0653 22.2136 1907 2
43.2813 30.2504 23.5872 43703 2
40.2778 29.9857 25.1841 40975 2
42.9845 27.5737 21.8404 1897 1
47.8158 27.3001 24.6987 40935 2
44.9073 27.5314 23.4341 40985 1
46.3647 30.0305 23.2572 41032 2
47.9218 27.9644 22.2986 41894 1
47.2487 30.9428 25.6523 2942 1
45.2686 28.9571 25.9266 41849 2
52.5365 26.96 22.2544 1165 2
74.7353 39.313 22.4525 18489 1
49.0853 29.7718 24.6229 1954 1
50.2968 28.3011 22.908 42717 1
51.8922 28.8421 24.5652 40996 1
52.0004 31.1018 22.47 1163 2
54.5237 27.333 24.7594 20144 2
56.1867 27.7801 22.1024 19382 2
53.8584 29.3651 23.1299 1105 1
56.096 30.7048 22.3823 248 2
53.9613 30.808 25.3166 1164 2
56.6478 29.1775 25.5926 1973 2
59.0024 27.0413 21.8049 19227 1
58.4781 28.9352 23.7047 19231 2
60.9353 29.4415 22.3674 2792 2
58.5875 31.264 22.5292 1109 1
59.7691 30.8188 25.5364 200 2
61.4701 28.3857 24.9317 19243 1
65.7236 27.0182 23.3435 18337 1
64.1882 29.3589 23.0152 19242 2
63.1324 30.8336 25.5083 20214 2
68.509 27.6256 22.4556 30998 2
70.0335 27.5488 25.2303 19186 2
67.2878 29.0844 24.889 12515 2
69.3538 30.2346 23.7421 43818 1
66.7885 30.5453 22.4533 30833 2
71.4161 29.5466 25.175 19294 1
73.5944 29.8213 23.5976 43804 1
71.4754 28.6987 22.3682 18339 2
72.8432 27.5769 24.8445 18336 1
18.8938 33.8995 23.6761 1017 2
21.8271 34.6955 23.1641 1060 2
20.6183 32.682 21.863 74584 1
20.8146 35.4837 25.5075 63543 1
22.739 33.5066 25.7589 1980 1
24.4088 33.1081 23.6877 63681 2
28.668 31.8858 23.475 40965 1
26.8568 31.9113 25.4478 20152 2
26.9385 33.7607 23.0439 1070 1
28.7757 34.0916 24.4999 1989 1
29.4172 34.3086 21.9735 1031 2
26.8516 31.6414 21.5869 40917 2
31.9473 35.5529 23.14 1029 2
31.4203 32.2625 23.2744 1940 2
34.0388 33.8922 24.5631 24974 2
33.3884 33.4437 21.8255 984 1
35.3438 31.5674 23.4203 41893 2
38.6143 32.8988 23.6252 1199 2
36.318 34.8946 22.7836 41937 2
38.6992 35.5183 25.2856 20283 2
36.5894 33.6145 25.383 1080 1
38.9487 35.4902 22.4888 19202 1
40.8233 31.4313 22.7347 42701 1
40.9212 34.6852 23.2503 2002 1
43.1608 32.986 22.1919 41848 2
41.356 32.9669 25.0791 2004 2
43.8835 35.5241 23.9357 2990 2
46.6218 35.2005 23.2811 2067 2
45.3648 32.688 24.8754 43700 2
46.1277 32.4246 21.7157 197 2
51.0854 31.1285 25.1371 42715 1
48.7591 35.0359 25.2306 236 1
48.8717 32.5577 23.8702 237 2
49.8263 35.005 23.1931 41035 1
51.7082 33.6434 24.8539 2022 2
51.1305 33.5341 21.9521 291 1
54.8361 33.4315 25.3147 249 1
56.1601 35.0489 23.9484 19334 1
54.1582 33.2142 22.7446 20251 2
53.6276 35.5417 24.4292 1208 1
74.669 18.5961 32.6589 11586 1
57.0589 32.132 24.7643 2077 2
59.363 33.8727 25.3664 19233 1
61.5249 35.0004 24.3149 43165 1
58.6056 33.8587 22.477 241 2
61.2962 32.3958 23.4523 1112 2
61.1058 35.5696 21.6743 1111 2
64.2766 32.3005 23.0639 18380 1
64.2517 34.9595 22.658 19232 2
63.7169 33.6172 25.0668 19341 1
65.7312 35.1801 24.9773 19339 1
66.1871 32.1048 25.1015 19289 2
66.6223 33.4077 22.7869 19288 1
68.8286 32.5417 23.5261 20162 1
68.0627 34.1018 25.2129 19293 1
70.8888 33.7679 22.0219 18438 1
74.1424 32.1305 22.5572 19297 1
71.495 31.7924 23.8394 19246 2
73.2909 34.7465 23.0311 43988 2
74.5179 32.1484 25.3521 19301 2
71.7999 33.858 25.9389 19295 2
74.8013 34.9638 25.8998 19350 2
74.9086 52.315 63.6163 28956 2
20.1062 36.793 22.5773 63542 1
18.7317 37.3198 24.7374 63539 2
21.9685 37.8642 24.5751 1979 2
18.6049 38.5029 22.2401 63669 1
25.2163 35.4882 22.6688 43702 1
23.9173 35.9684 24.4337 1069 1
23.1019 37.3281 21.9807 1988 2
25.489 38.4786 23.4564 2036 2
23.0551 39.8876 22.4974 2045 1
26.5807 35.6837 25.322 1075 2
29.6291 36.5963 24.7069 1074 2
27.8039 36.6742 22.1769 41015 2
30.4336 38.7192 22.7318 1028 2
28.215 38.9782 24.7653 1122 2
34.3248 37.0567 23.8068 2829 2
32.0236 38.1942 24.6008 1079 1
35.5625 39.8122 23.2569 1998 2
38.0256 37.9413 23.4547 41068 2
37.2756 39.1706 26.1826 2061 2
41.752 35.8331 25.5011 2944 1
40.8646 37.0956 23.2238 40988 1
43.0656 38.676 22.0332 1204 2
42.7318 38.0816 24.6512 2066 1
40.5592 39.8439 23.4841 41984 2
45.2685 37.7794 24.1656 41031 1
48.1226 37.4754 23.8549 330 2
46.3592 38.9826 21.8443 286 2
44.8826 36.7778 21.8475 1159 1
52.313 36.2755 22.1381 1155 2
50.9106 36.9245 24.9873 1162 2
50.0773 39.3292 23.635 290 1
74.0644 18.3957 37.9843 10700 2
52.8698 38.9226 23.7371 18473 2
56.3689 37.1831 25.2596 19276 1
55.1599 37.2578 22.7256 20297 2
55.2032 39.3669 24.8273 388 1
60.7444 38.9476 21.7658 18381 2
58.7571 36.3019 24.4102 2121 2
57.7397 39.319 23.502 18430 2
61.2206 37.1524 23.8894 1119 1
59.9011 38.7318 25.1848 18376 1
62.4265 39.2414 24.945 19286 2
63.496 36.4435 24.9166 20213 1
63.2179 37.4157 22.5977 19236 1
65.5542 37.9005 24.2849 19281 2
64.2176 39.6777 22.7184 44031 1
69.9434 35.6967 23.6095 19349 2
67.2068 35.8395 22.7925 20215 1
68.0248 36.9687 25.6941 19291 2
68.2827 39.6844 24.8294 163 1
68.1653 38.0796 22.9187 19290 1
72.5648 73.3051 72.8739 15179 2
70.6035 37.8801 21.8774 18383 1
70.6975 38.5236 24.6121 18437 2
72.5104 36.2832 24.9954 25899 1
73.6699 38.7132 25.019 19352 2
72.9937 37.4074 22.6254 18386 1
20.4321 40.2236 23.3285 63537 2
19.0623 42.5253 23.8403 63648 1
21.4436 44.0392 24.7684 63528 2
20.7642 42.7603 22.435 63678 1
21.7318 41.2652 25.436 63529 1
23.8528 40.1398 24.6796 2039 1
23.0013 42.2486 23.4011 21093 1
25.4766 41.6249 22.3061 41066 2
24.2293 43.034 25.802 63091 2
26.2616 41.1401 25.4136 2037 2
26.5466 43.7564 24.0158 2969 1
30.5413 40.8868 25.0513 25055 2
28.431 41.6464 23.0778 43701 2
32.8965 40.2951 23.71 41941 1
31.3176 43.9359 24.0401 2090 2
31.2735 41.7184 21.9932 41883 2
34.1807 42.6526 23.2863 2051 2
33.0096 42.0097 25.6476 1994 1
57.6823 24.9093 21.4435 18326 1
38.2405 40.9527 23.8311 1202 1
36.0365 41.8308 25.3629 2053 2
38.9281 43.0905 24.996 41078 1
36.2459 42.2542 21.7856 2056 1
40.0661 42.8521 22.3612 3133 2
43.7169 40.327 24.1433 25047 1
42.5839 41.7498 22.4376 1200 1
41.7945 42.4204 24.8765 1198 2
42.4261 44.3283 22.5753 1249 1
44.5357 43.3497 23.9647 1251 2
44.9505 41.156 22.165 25049 1
46.7223 40.7256 24.3186 2119 2
46.9031 43.0178 22.0917 1254 2
47.6818 44.1437 25.1291 1253 2
48.9094 40.8056 21.4793 41038 2
49.2241 41.7954 24.3432 2113 1
49.4352 44.4025 22.5208 340 2
51.6722 42.0499 23.2609 289 2
68.6431 74.8936 40.6278 24665 1
53.7696 44.011 22.4225 1307 1
53.5735 41.3589 24.9314 20299 1
55.3292 41.3875 22.7944 18427 2
54.3168 43.5365 24.7444 39218 1
44.9044 74.6477 41.0798 6312 2
57.3904 43.0763 23.9896 19337 2
60.4075 41.3486 24.0011 20206 2
61.6916 43.9308 24.7468 20298 2
61.8747 43.4927 21.9844 18479 1
18.3935 18.1566 38.308 4552 2
59.5714 43.9714 22.7083 1255 1
62.5106 41.2558 22.5682 18379 1
64.6833 41.7649 24.6365 19338 2
63.9683 44.2366 23.1264 18435 1
66.6385 43.7 22.6434 19384 1
66.7331 40.4686 22.4502 18433 2
69.692 40.9001 22.7771 18439 2
67.8679 42.419 24.6881 20305 2
69.3772 43.654 22.7265 19396 1
70.0203 40.9858 25.5731 19340 1
70.9926 43.2493 24.7803 19389 1
72.4351 39.8146 22.4696 18443 1
72.129 41.1399 24.6674 20353 1
74.6316 41.5111 23.7152 20361 2
72.0003 42.7763 22.2875 19401 2
73.212 44.4914 24.0952 2141 1
18.8352 45.2746 23.7836 63282 2
18.3036 47.7344 25.4836 63280 1
20.7383 47.6127 25.9521 48662 1
24.2614 44.5218 22.7355 63650 2
22.3451 46.8786 23.9349 53468 2
24.2957 45.6553 25.1859 2088 1
24.7161 48.2881 23.8999 63527 1
26.8105 46.3478 23.6705 41064 2
28.7453 44.4609 23.4218 2049 1
30.0852 47.0542 23.1189 41946 2
28.8709 46.2278 25.4891 1131 1
28.0451 48.6194 22.1527 41062 1
34.3197 44.0954 25.8611 41940 1
33.2553 46.1524 23.3556 2157 2
32.0683 48.2625 24.8615 2922 1
31.2343 46.1882 25.7821 2046 1
37.0727 44.1075 23.518 41939 2
35.408 45.9458 24.7187 3952 1
38.6835 46.1858 21.866 41124 2
36.0467 46.555 22.4986 41990 1
37.9247 46.7798 24.8519 2159 2
40.099 45.1193 24.2745 2156 1
41.8365 46.9033 22.9979 1293 2
40.5918 47.187 25.2983 1292 1
44.163 46.0422 24.292 2162 1
44.5626 48.2275 22.4443 2169 2
46.3731 45.5296 23.1915 381 1
46.2217 47.4128 24.7229 21219 1
48.5214 48.7139 25.046 2214 1
44.4546 45.5192 21.7692 1257 1
48.3729 46.7664 23.5377 385 1
74.6134 49.8494 46.391 23970 1
51.959 45.177 24.2173 25040 2
52.7214 46.729 22.5224 1345 1
50.8486 48.4024 24.1054 2213 2
51.2491 72.7646 21.544 632 2
55.5246 45.9174 24.0123 1306 2
56.1999 48.5508 22.2635 19426 2
54.112 48.5753 24.2306 19428 2
57.3323 48.356 25.2515 21280 2
58.7763 45.7012 24.8405 1303 2
61.7245 46.2609 22.6607 20338 2
60.3597 48.2731 24.5472 2172 2
58.7347 46.8469 22.1665 20346 2
66.383 44.8123 25.0771 21284 2
63.8372 45.9507 24.7027 20304 1
64.9236 46.3303 22.3515 19386 2
63.2216 48.6436 21.8628 1274 1
63.6621 48.6621 24.692 18534 2
66.3324 47.3753 24.3697 25875 1
68.1678 46.0207 22.8012 21192 2
69.4038 48.0341 25.0653 19439 2
69.9047 48.6765 22.2087 18476 2
69.2876 45.0962 25.5762 20308 2
71.2648 45.8455 23.0669 19436 2
74.426 46.8634 24.5715 20313 2
73.8642 46.2344 22.0846 18542 1
72.0711 48.8206 24.7902 2268 2
19.7945 48.5074 23.6658 63274 2
17.9509 51.9407 23.6749 54461 1
20.4246 51.5621 22.7125 63632 2
21.1711 52.7452 25.5161 63060 2
22.7995 49.5102 22.3515 48669 2
24.9816 52.7188 23.0625 63235 1
25.2465 50.9623 25.178 63483 2
22.376 49.7812 25.4927 48858 2
25.8929 50.1393 22.395 2085 2
22.9043 51.7582 23.6284 63486 1
27.6586 48.7156 24.9062 63281 2
29.7687 50.0392 23.8258 24951 2
27.7492 52.3902 23.7778 2089 2
34.7032 48.9242 23.8337 2095 2
32.3066 48.6252 22.4179 41115 1
31.2555 51.4754 22.0665 2040 1
32.2169 50.5932 24.5872 40237 1
34.9263 51.2531 25.1521 41120 1
33.6456 51.9934 22.9668 2048 2
37.3245 48.6954 22.4849 2155 1
36.9333 52.0791 23.718 378 2
37.0221 49.5585 24.8644 63642 1
38.9657 51.3731 21.6648 18505 2
38.8824 50.9537 25.7971 1336 1
39.7505 49.0887 23.5682 1294 2
40.4897 52.2761 24.1422 1339 2
74.723 64.5764 36.6157 24363 1
42.6328 49.9063 24.3146 2200 2
47.9278 49.319 22.3298 41079 2
44.5114 51.6456 22.1468 383 2
45.8783 50.1807 24.7071 1295 2
46.9807 52.1363 23.4963 2240 1
49.1272 50.8709 23.9632 394 1
49.269 52.6082 21.8924 3092 2
50.7973 74.8089 72.2951 14280 1
52.2779 51.1543 23.2506 25001 2
27.6459 18.1574 25.2545 1845 2
55.6129 51.1364 23.756 1268 2
58.0113 51.2078 25.2329 1310 1
58.224 49.8771 23.0256 19470 1
59.9163 51.5337 23.2424 3150 1
61.0339 51.0227 25.6785 20342 2
57.5921 53.1469 23.2779 1267 1
34.3065 18.2594 53.2211 18013 2
66.022 49.2025 22.5067 20344 2
62.6953 51.1189 22.9113 19483 2
65.3675 51.3484 23.9759 20397 1
64.9219 52.4312 21.8371 18526 1
33.8864 74.9729 61.829 10713 2
68.0906 50.1058 23.7984 25042 1
67.5804 52.6142 22.4994 19482 2
70.2181 51.5987 23.6274 19488 2
73.155 51.7775 23.8171 19532 2
74.467 52.9884 26.1743 20447 1
75.0121 19.7896 22.7463 31289 2
17.8749 36.4791 28.9258 55152 2
19.4026 54.477 23.6114 63500 2
21.1862 57.0994 24.3882 48680 2
72.8346 24.3563 21.6901 44079 1
22.704 54.2923 23.6008 63481 2
23.6244 56.2409 21.6294 63634 2
25.5251 54.7657 24.9876 63188 2
24.1125 56.8378 24.3672 63485 1
30.4655 53.5822 24.1344 40239 2
26.4623 57.1616 22.9189 63479 2
28.2531 55.1176 23.1195 3022 1
28.6615 55.9544 25.5043 2195 2
30.1098 57.0154 22.7876 25023 2
33.179 54.4661 24.1899 41977 1
33.374 57.2253 23.1156 428 2
32.098 54.752 21.5744 42703 2
35.2577 54.7673 22.6515 41126 2
37.4867 54.7028 23.9114 477 1
36.1302 57.0302 25.0071 376 2
37.3348 57.2557 22.1226 1338 2
39.3649 53.9451 22.4839 25067 1
39.2728 56.3897 24.5595 3191 2
35.5535 54.2085 25.7195 41170 2
43.5214 52.794 24.6724 1388 2
43.5745 55.2278 22.1351 435 2
41.3005 54.7833 23.5175 19545 1
41.7706 57.1685 23.3057 481 1
43.2729 56.0986 25.3933 2289 2
45.4043 54.2233 23.6861 1386 1
46.6372 53.8136 21.7777 438 1
45.4 57.3203 23.1955 1390 2
48.1803 55.8418 22.1234 1348 2
45.9085 55.8215 25.4863 1347 1
47.7498 57.0753 24.5473 1393 1
48.257 54.2186 24.7346 1297 2
50.3704 56.4805 24.2242 20463 2
51.0392 53.4692 23.8451 19565 1
52.7691 55.089 23.9532 1399 1
53.3865 52.8903 25.6135 25885 2
55.3516 54.0835 23.7667 19469 1
54.4128 56.2054 22.1612 20435 2
54.8416 56.1109 24.9479 19657 1
53.333 53.3954 22.2851 1352 1
56.9891 55.4181 22.0622 19517 1
74.7114 51.001 28.4155 21296 2
59.28 53.1703 25.1452 19379 1
59.8141 54.3782 22.2882 20390 2
57.6517 55.9065 24.6335 25887 2
58.8834 57.0059 22.3835 18630 1
60.8417 56.5954 23.6871 25865 1
62.0767 53.6875 24.5228 19476 2
65.1055 54.0969 24.3594 19486 2
63.5977 56.2581 23.4166 19570 2
65.9126 55.375 21.6036 19581 2
65.6327 57.537 25.8296 19578 2
74.7778 72.3243 52.682 27128 2
67.5715 55.4739 24.1353 19585 1
70.033 54.5441 24.4124 19524 2
69.674 57.1017 22.6196 19586 2
68.8625 57.1909 25.7066 19626 2
68.7458 54.7707 21.6976 19523 1
71.4726 54.1278 21.8624 19489 2
72.798 54.1913 24.6275 20402 1
73.3028 56.2824 23.1168 20444 2
74.3637 55.4336 25.9495 20446 1
71.2579 57.2873 24.6027 20488 1
18.813 60.3158 22.084 53700 2
21.4456 59.5317 23.0488 63438 1
19.5712 60.0319 24.6657 63040 1
18.1555 57.8169 23.6645 63187 2
21.9675 59.9417 25.9572 63183 2
24.1251 59.2209 23.2999 63433 2
22.9012 61.353 21.8562 63598 1
26.3844 60.2883 24.8106 63042 1
29.1274 59.2343 24.8338 63272 2
29.0394 59.3062 21.7719 53557 1
27.8442 61.8998 23.3026 63227 2
26.6784 59.6214 22.5187 63410 1
29.0355 61.9472 25.9611 48774 1
33.9016 58.2466 25.545 24941 1
31.8237 59.8997 22.8545 1382 2
31.685 58.8489 25.2673 3012 1
33.221 61.3123 25.735 3025 2
35.2766 59.6669 23.1959 24999 2
37.898 59.6991 24.6744 1385 2
35.8742 61.8802 25.3394 20458 1
37.7279 60.1302 21.9715 426 1
39.8789 58.8131 22.1137 429 2
40.9385 58.4673 25.4056 2333 1
42.9985 60.943 23.384 19607 1
40.496 60.707 23.8117 24937 2
43.3204 58.7254 24.325 1387 1
43.131 58.5525 21.5356 479 2
43.911 61.4061 25.8931 1441 2
74.6586 42.3483 73.8705 13823 1
45.8117 60.2441 23.7905 1445 2
48.3113 61.4275 23.716 1444 1
48.3938 59.1578 25.6181 2294 1
51.36 58.1747 22.3802 491 1
48.3962 58.9041 22.5069 1447 2
50.8399 60.1843 23.9253 19569 2
52.6773 61.9948 22.5328 2342 1
53.0711 57.9764 24.418 1398 2
55.1324 61.6591 23.8926 25862 1
55.8399 58.6312 24.1396 448 2
53.2513 60.792 24.7186 24996 1
74.8766 55.6301 31.0292 21348 2
59.1903 58.5343 24.5244 444 2
57.4362 60.8192 22.5892 19618 2
60.4304 60.7885 23.5763 20476 1
61.8813 58.8082 23.2039 19572 1
64.277 59.1927 23.8796 19520 1
63.2055 61.063 22.1936 19580 2
62.3173 57.7301 25.7415 20428 2
62.6157 60.8376 25.2907 19623 2
66.7004 57.9416 23.3513 1420 2
68.9729 59.913 23.1189 20487 2
67.5769 59.4769 25.5717 20483 1
66.2023 61.0874 23.3248 546 2
68.4798 61.8626 25.9911 20492 2
74.3047 60.8665 24.9489 20497 2
72.3794 59.2794 22.8008 20485 2
71.6168 61.9024 24.8473 21396 1
70.8372 61.2757 21.8451 19632 1
73.7334 57.9577 25.6956 20489 2
70.9041 59.6354 25.8269 20537 2
21.2718 62.091 23.6594 63425 2
20.7576 65.1551 22.7712 54635 2
18.0644 65.0854 23.9633 55588 1
18.9462 63.0902 22.2512 53783 1
17.9468 62.1313 24.5859 55544 2
24.5172 61.9926 24.2347 54632 2
23.6441 63.8163 21.9063 63600 2
25.7452 64.961 24.8114 63028 2
22.8439 64.2714 24.4687 48872 1
26.5304 64.0128 22.5858 63474 1
29.4384 64.519 22.0198 5799 2
28.6072 64.617 25.1877 63176 2
30.8447 62.5923 23.9936 24954 2
30.9344 66.1652 24.6212 63037 2
33.7105 62.4682 22.9006 19499 2
32.4245 65.4184 22.1155 5309 2
32.7349 64.299 24.7701 2284 1
35.3826 64.78 21.809 24997 2
37.0665 62.5033 22.5929 2288 2
38.3898 65.5645 23.2817 2328 2
38.5876 62.9326 25.2021 1384 2
35.5479 64.4296 24.8898 3184 2
39.705 63.5102 22.6161 2286 1
42.2352 63.5354 21.6247 1440 2
41.7807 63.4251 24.7374 1439 2
41.4555 65.7353 23.4993 572 1
44.4793 62.8406 23.3839 1391 1
46.1782 64.3689 22.0357 19616 1
44.4124 65.5325 23.3556 1442 2
47.2242 63.859 24.5261 1443 2
49.8424 63.1548 22.1669 19660 2
48.3581 66.1299 22.2907 1446 2
49.7008 64.7208 24.1465 25036 1
52.0948 65.4056 22.5273 2381 2
51.8226 63.1785 24.8043 19617 2
54.3228 64.005 23.2876 19665 1
56.2281 63.746 24.943 20518 1
53.6954 64.8547 25.6057 1490 1
57.14 63.9184 22.4939 20521 2
65.041 74.7972 47.6363 26172 2
60.1077 62.409 21.4808 18729 2
60.0857 65.0153 23.0419 19670 2
57.718 65.6603 25.0556 20522 1
58.8226 62.7377 24.4776 20525 2
61.6133 63.0273 24.0489 25860 1
64.0653 62.9729 23.7012 19625 1
62.4719 63.9959 22.0321 1455 1
64.9209 65.0681 22.8844 2354 1
62.888 65.2198 24.3658 19624 1
46.656 75.0814 70.6322 14266 1
65.7237 66.0741 25.6305 21433 2
66.7296 63.328 21.9552 602 1
66.3712 63.4083 24.7887 20533 1
67.6616 65.6068 23.4049 18736 2
69.2278 63.0722 23.4109 20527 2
70.3142 65.3744 22.5044 1461 1
74.2827 64.9495 24.2057 22590 1
72.9717 62.831 22.8203 19679 2
71.7468 65.0885 24.7056 21693 2
72.9328 65.7576 21.7676 43679 2
70.6396 63.6408 26.6348 19639 1
18.7034 66.6906 25.8022 50692 1
19.0365 67.2334 23.2272 50596 1
20.5239 68.55 24.4075 54678 1
18.3479 69.4372 24.6535 63016 1
19.6897 70.1442 22.188 54856 2
21.7134 66.5713 25.7482 63177 2
21.8437 67.9097 22.1075 63142 1
23.333 66.2423 23.2363 63141 1
22.9746 69.343 24.2075 54677 2
25.2863 67.7541 23.6042 63140 1
24.369 67.2579 25.6908 55685 1
18.0831 18.2806 40.9334 22717 1
27.908 66.9019 23.1365 63144 2
26.5433 69.601 22.942 55682 1
29.2017 69.4708 24.1536 63139 2
30.0653 67.1054 21.8145 1383 1
34.0549 66.6189 23.8559 24853 1
31.8025 68.3425 23.2156 48819 1
32.9484 70.309 22.6936 4458 1
33.5639 69.4056 25.1069 4408 2
35.3242 70.211 22.6574 21775 1
74.7633 58.6211 66.0457 28444 1
38.9612 67.6945 21.766 526 1
36.3652 67.4947 22.2047 4413 2
37.9859 70.1028 23.0039 4204 2
36.1438 70.038 24.7721 3598 1
52.3581 74.2686 49.0292 26256 1
43.4064 69.1222 23.5982 579 1
43.0015 67.2376 25.4735 2420 2
39.9587 67.9988 24.4912 1482 2
42.7109 67.3521 21.5158 527 2
45.8769 68.4171 23.437 578 2
44.2778 70.9373 22.2016 530 1
48.2885 66.8691 25.3955 19614 2
50.4996 67.2688 23.6841 2338 1
48.7576 68.9443 23.4553 1528 1
51.5541 69.6826 22.3631 1488 2
50.7608 69.367 25.4481 24995 2
52.747 67.507 24.0405 2427 1
55.3167 66.4655 23.7847 2430 2
54.0709 69.395 24.9961 1533 2
34.4106 74.9003 30.2292 23585 1
56.2337 69.0829 23.1126 2425 1
60.5513 68.8147 22.3459 19718 2
59.3053 67.4099 24.3849 20569 1
58.3571 69.524 24.1128 25855 1
57.8943 66.9526 22.2652 25882 2
63.1031 70.0912 22.7419 25856 1
64.4946 67.8121 23.543 20529 2
61.7821 67.5028 24.3887 20571 1
62.9713 69.7752 25.2658 21735 1
65.6675 70.7382 23.7096 20824 2
65.1247 69.043 26.0441 19669 1
66.539 68.4321 21.6048 21739 2
23.6431 18.1855 29.2955 2718 1
70.138 67.5743 24.0684 25816 1
69.6347 69.6215 22.5816 18741 1
67.5036 68.5233 24.5863 22589 2
71.2753 67.8104 21.8523 2396 1
73.5181 68.2881 23.6004 2592 2
71.858 70.3908 22.0449 21785 1
72.0349 67.6359 25.5854 25853 1
74.3808 69.4373 25.9006 21748 1
71.6232 70.3144 24.8151 22642 2
20.4153 70.9781 25.3204 54810 2
19.3755 74.1928 25.7129 54859 2
18.4382 72.0632 23.6049 63105 1
20.6692 73.3219 22.9827 63116 2
23.5905 74.5694 22.7755 63005 2
22.2544 71.4551 22.5376 63128 1
26.0741 73.6173 21.8208 3538 1
24.7287 71.7203 23.3 63124 1
22.7295 72.5567 24.9661 63010 1
25.578 73.763 24.3487 48908 1
29.7111 73.4119 24.5416 4507 1
27.4126 71.937 23.7607 63125 2
27.7914 74.5002 23.0965 24854 1
42.7526 74.7463 39.1489 6311 1
28.6212 70.6243 21.5837 50703 1
30.9617 71.9247 22.5931 3587 2
32.3815 74.3516 24.0964 3594 2
33.4777 73.431 21.4777 24933 2
33.6594 72.1551 24.0884 4512 1
34.4211 74.52 25.7505 3592 1
36.0054 72.8014 22.9688 3602 2
39.0416 73.1045 23.0527 22511 2
37.8746 71.899 25.1541 3597 1
42.1232 72.1526 24.0844 2374 2
42.4293 74.4657 22.8498 19699 1
44.4075 73.988 25.1821 1532 2
44.7499 70.9364 25.0759 1483 2
44.7552 73.4683 22.337 1487 2
46.946 71.2967 23.1666 3300 1
47.4196 73.5004 24.8067 2424 2
48.2086 73.7235 21.5347 21734 2
49.8902 71.8708 24.2352 2426 2
52.7866 71.5126 24.0009 2431 1
51.9007 73.6719 25.3328 21736 1
48.9968 71.2347 21.9662 1535 1
54.6483 71.2769 22.2244 25821 2
53.426 74.2594 23.1769 22631 2
56.0249 74.3382 24.4655 21729 1
56.5075 71.3087 24.8201 21476 2
56.664 72.9125 22.2731 2432 1
54.3503 72.4406 25.2999 21526 1
58.7464 73.2604 24.0287 20618 2
60.9172 71.4195 23.8238 20619 2
60.8915 73.8999 21.8547 21788 2
58.4492 70.9349 21.5655 19667 2
70.1554 74.9924 61.5857 28978 2
63.4435 73.0636 23.5011 22588 2
65.2165 74.605 64.5364 28975 1
67.8005 70.8258 22.1931 21740 1
17.7206 42.7188 60.8485 62421 1
68.539 71.4537 24.8575 21737 2
66.7051 73.2083 22.4394 21781 2
69.9762 72.5856 22.3289 22688 2
73.3956 74.7624 24.5117 21796 1
71.4124 73.2323 24.6854 25817 1
73.3138 72.541 22.8718 20834 2
17.6088 58.1286 47.1953 62652 2
73.7897 72.198 25.8369 21791 2
19.8058 18.8078 27.0398 1881 2
21.2032 19.7241 29.5657 2716 2
21.3241 21.2231 27.175 25064 1
19.4188 22.1088 29.0407 20051 2
17.723 19.5417 29.196 59349 2
25.9256 18.3357 27.901 784 2
23.0743 19.2349 26.8211 20009 2
24.612 21.4927 27.5774 24990 2
38.4274 74.5261 61.8217 10856 1
26.8491 21.4094 29.524 2772 1
27.7088 20.8341 27.1376 2717 2
28.9834 19.1513 29.011 1847 2
29.4282 21.8415 29.0838 2776 1
33.5258 21.2225 26.1476 2726 1
31.2817 20.3701 27.3294 1891 2
33.8333 20.8839 28.4669 987 1
31.7393 20.1674 30.3779 3653 2
36.1744 18.3758 28.5341 3659 1
35.3444 19.4176 26.4651 20120 1
38.2605 19.234 26.7493 21910 2
39.4056 22.1166 26.5447 3657 1
36.4568 21.2051 28.1233 1900 2
38.6866 19.2895 29.7214 3663 2
41.2084 20.2619 27.5189 22582 2
44.1304 21.0985 26.4535 21871 1
43.7974 18.3276 27.6016 22714 2
46.2585 18.3297 28.616 22534 1
45.3618 20.8522 28.4769 12875 1
48.1026 20.3366 27.6848 23264 2
51.0202 18.8047 27.5842 3670 2
50.5637 21.434 27.5455 21895 1
51.7775 22.3673 29.7481 22570 2
50.0106 20.1675 29.8349 22528 1
52.5721 19.8519 29.6346 21898 1
55.8585 21.1454 26.1892 23127 1
53.1863 21.2693 27.1139 2785 2
55.2202 20.3089 29.2643 22564 2
54.2143 18.3232 26.8881 22533 2
57.5132 18.6848 26.4215 11602 2
57.5549 21.2958 27.8889 23632 1
58.039 19.1725 29.7385 21893 2
59.6905 19.6901 27.3403 20993 1
60.2455 21.5527 29.1239 20141 2
61.0886 18.2899 29.3304 22527 2
74.6901 52.1465 37.9122 4037 2
61.9997 20.5601 25.9915 38322 2
63.3964 18.3489 27.4413 12512 1
64.5201 20.233 26.5853 12897 1
63.3869 20.7094 29.0487 25850 2
65.4054 19.0081 30.0271 31025 1
66.5328 21.1542 28.3814 11550 2
68.7242 19.2514 27.5567 30802 2
70.4054 20.4244 29.2588 1659 1
74.3728 18.3911 27.6412 12895 2
71.8721 19.9986 26.7683 22613 2
74.4823 21.4309 27.9458 30808 2
72.8172 19.8172 29.4076 12506 1
72.2572 22.3339 29.4307 11516 1
19.8854 23.3009 26.0421 1887 1
19.9266 24.5523 27.9113 1930 1
21.8209 25.7959 28.7395 2818 1
21.2993 26.5918 26.2268 1885 2
22.3093 22.8753 29.4258 1841 2
22.4323 23.7939 26.714 1886 2
24.2088 26.3146 27.7623 976 2
25.0786 23.8628 29.6495 2770 2
25.7217 26.6831 29.8112 21001 1
29.7901 22.5785 26.9286 936 1
26.9428 23.7433 27.4727 1889 2
29.3599 24.3939 28.3779 2771 1
28.0917 23.3018 30.2306 24989 1
27.691 26.6374 27.5665 2769 2
27.6289 25.4474 30.2857 2764 1
30.1232 25.9736 30.6274 1892 2
32.223 23.0813 27.8062 2775 2
31.277 26.1155 27.603 1946 2
33.513 25.4756 29.6193 2825 2
34.4333 26.5817 26.8544 25028 2
35.1643 23.7136 28.274 2778 1
34.3033 22.3689 30.3808 1948 2
31.2272 23.382 30.5111 2724 2
39.4741 22.0838 29.1684 3662 2
37.662 24.3758 26.8906 25025 2
36.9517 23.4883 29.6224 5526 1
36.4444 26.2055 29.0641 2828 2
37.0103 27.0501 26.3056 1951 1
42.9005 22.4703 28.5201 2784 2
39.9011 26.9083 26.0657 1958 2
43.8365 23.3867 26.3517 22532 1
40.54 24.2617 27.7052 23152 2
42.5076 25.9803 27.4916 3759 2
46.252 23.0244 27.1743 4627 2
44.6846 24.861 28.4906 21900 1
47.2196 25.8377 27.4281 2786 2
46.1079 26.1632 30.041 3720 1
48.1551 25.2261 30.2763 4629 1
48.7657 22.8083 29.4748 2736 2
49.3298 23.5806 26.5176 750 2
52.4985 24.1849 26.7127 2024 2
50.1616 26.0306 28.2332 1107 2
52.7375 24.9409 29.1173 21056 1
54.1127 26.1648 27.4612 42770 1
56.7724 26.2661 27.1297 40027 2
55.4575 23.3789 27.8977 30857 2
55.1149 25.7793 30.1509 1056 2
56.9621 23.6386 25.6627 23172 1
54.3189 22.9081 30.0504 2851 1
57.4124 22.5133 29.8511 12459 1
57.642 25.1579 29.9895 2028 1
61.26 23.2548 27.0954 20104 1
58.7644 24.1927 27.7491 20098 2
61.2112 25.5286 28.5452 20201 1
62.1515 25.7488 26.0443 713 2
62.6507 23.3695 29.2135 20096 1
64.0763 23.1099 26.8788 20100 2
64.1533 25.8414 28.5335 19684 2
65.197 23.4865 30.164 25880 2
66.4108 24.1068 27.9612 12414 1
69.2836 22.5273 28.3563 12867 2
66.6798 26.6305 26.93 25879 2
69.4542 25.471 27.1498 19196 2
68.0096 24.9731 29.8644 12419 2
70.7768 24.5625 29.7076 20160 1
71.5355 22.7412 26.2509 22672 2
74.7592 22.9459 30.0868 12890 1
74.1712 23.5002 26.3467 20157 1
73.2523 24.736 28.6448 1651 2
21.0787 29.6452 26.2681 63546 2
18.9145 27.3546 28.2833 2763 2
18.5838 30.8481 27.321 1936 2
20.3358 29.6533 29.0104 1982 1
24.0812 30.8476 25.9009 1018 2
23.3693 28.434 26.534 1929 1
25.8659 29.2693 28.3635 1941 2
22.9145 28.6281 29.1236 2859 2
29.6437 27.6345 26.1086 1949 1
29.8805 30.1831 25.0003 1947 2
27.8829 29.195 26.1865 25059 1
30.1633 28.5565 28.7329 2864 2
27.8851 28.048 30.1425 1935 1
31.6863 29.5254 26.8548 2872 1
34.1035 29.6655 27.0975 24982 1
32.8657 28.0284 28.2323 24984 1
32.2857 30.7504 29.3543 1993 2
35.2314 29.2104 29.552 3752 2
39.013 27.4472 28.4758 4664 2
37.1546 29.5611 27.2096 2831 2
38.1293 29.8075 29.6764 2862 1
39.7325 29.7976 27.7514 2873 1
42.4379 28.8667 27.0912 2069 2
43.3741 27.6125 29.7377 2941 1
43.3595 30.4157 29.4152 2789 1
40.8525 29.2554 30.1994 2879 2
44.7437 27.2362 27.7792 2006 1
45.7845 29.049 29.7027 2984 2
48.1042 29.0918 27.4748 2072 2
48.0523 27.3595 29.3864 2893 1