ITEM: TIMESTEP    
135000     
ITEM: NUMBER OF ATOMS  
77888     
ITEM: BOX BOUNDS pp pp pp
17.607 132.393    
18.0782 131.922    
25.4352 124.565    
ITEM: ATOMS x y z id type
19.7022 20.2953 25.6565 72779 2
19.0975 19.8819 28.7014 1881 2
19.5565 22.4536 29.368 1887 1
21.1637 22.3503 27.3555 977 2
21.901 19.1697 27.8297 1839 2
24.9967 19.2922 26.7919 23170 1
23.3423 21.4023 28.8309 1848 1
25.3699 19.9801 28.9303 22628 1
24.2067 21.5556 26.5404 926 1
27.417 19.2031 25.9897 72824 1
29.865 20.5783 27.4494 20062 2
26.8747 21.6727 27.2552 1846 2
27.431 18.5318 28.6724 1845 2
32.8422 20.6648 27.2167 43709 1
32.3892 21.8702 29.2379 25026 1
31.9391 18.6229 27.2702 2719 1
33.4142 19.0733 29.4255 23637 2
34.6783 21.3764 29.9074 2726 1
35.5886 20.4499 27.4166 1851 2
38.4467 21.018 26.5413 22537 2
37.3468 21.8278 29.1642 1899 2
37.9888 18.7115 28.104 22536 2
36.0162 19.3569 29.9845 20120 1
39.7112 18.6005 26.1938 1904 1
41.0798 20.1125 28.2838 1854 2
43.5349 18.5476 29.234 23128 2
41.7245 20.0809 25.6911 43666 1
42.7405 22.445 27.0738 40934 2
40.5706 22.1193 25.6613 2790 1
43.9625 21.0837 29.2392 21871 1
44.3905 19.8049 26.5546 1099 2
47.7755 20.7594 26.7681 40834 2
46.4147 19.6727 28.9653 22576 2
48.0621 22.0054 29.1278 1908 1
50.8334 18.8406 26.2186 38521 2
50.1791 21.4811 26.353 40893 1
52.5851 19.8475 28.623 22574 1
51.1431 22.1153 28.8158 1110 2
49.759 19.8529 29.0678 22529 2
52.9205 21.0713 26.3643 38365 2
55.6861 19.6467 25.6558 21944 1
55.0127 20.307 27.9308 12513 1
56.1223 22.2401 26.1583 39988 2
57.4601 21.195 28.5948 13500 1
60.985 21.6034 26.6215 31298 2
60.0002 19.4984 28.4394 19184 2
59.7661 22.2731 29.4512 31285 2
61.125 18.9228 26.1559 31004 1
58.1863 19.8558 26.562 38509 2
49.8936 62.6702 25.6626 19660 2
65.2718 21.5969 28.4665 21892 2
63.161 20.2447 27.2486 31021 1
65.4072 19.1832 26.2271 30371 1
43.4606 68.119 25.4923 527 2
67.7735 20.0534 27.1313 31023 2
69.5204 21.3857 29.4189 19245 2
70.3165 18.6985 29.0517 38366 1
67.8268 22.5864 27.4411 31293 1
70.2539 22.5408 26.0159 31019 2
67.2182 20.2734 29.8864 20998 1
71.7512 20.4838 27.7441 30996 2
73.9843 21.9426 29.3518 12413 2
73.3474 18.4479 29.3388 21403 2
74.7505 19.6908 26.9677 31289 2
18.2105 25.0032 26.7252 970 1
17.8968 22.4329 27.1791 1928 2
20.1061 25.1344 28.4058 1885 2
18.7461 36.6888 25.644 74330 1
22.4315 24.7133 26.9842 25062 1
24.681 23.5152 28.1754 25024 2
23.0568 25.7469 29.0769 1888 1
25.8202 25.5752 28.7341 1945 1
24.5422 26.5322 26.6866 25061 2
29.1847 22.8028 26.2062 1895 1
27.0038 23.48 29.3951 1884 1
27.5416 24.7254 27.0838 1943 2
30.0659 25.5985 27.4477 40920 2
29.8514 22.9617 28.9576 1944 2
31.8182 23.2559 26.764 989 2
32.9793 26.4357 27.6656 1035 2
32.2689 24.358 29.14 25060 1
34.5814 23.3343 28.0711 25027 2
35.2202 25.6434 26.6553 40922 1
37.3864 24.7226 28.084 2729 2
37.1625 26.5786 29.8197 1951 1
39.5461 26.1202 27.0429 2836 1
37.3715 26.6636 26.0983 2779 1
36.124 23.1378 25.6391 40928 2
42.1332 22.3154 29.6248 3665 1
40.0357 23.3366 28.1579 3770 2
41.6549 24.9059 26.4839 1956 1
41.9962 24.8645 28.8798 2782 1
44.0266 24.7642 27.2893 41801 1
40.0489 26.5572 29.5909 1958 2
44.0397 23.7387 29.619 22532 1
45.7131 22.6289 27.5252 43705 2
46.4772 25.3774 26.5853 40939 2
46.8077 24.3586 29.1129 1153 1
44.8343 26.4145 29.1146 2837 2
48.934 23.7761 27.4246 40989 2
51.8446 23.9025 26.4579 19180 2
50.4154 25.974 28.3744 2020 2
52.4182 26.7737 25.8182 1165 2
29.2229 44.4394 25.8162 42710 1
54.045 22.7232 28.6755 23176 2
53.1837 25.7517 28.4294 23642 1
54.7261 24.6031 26.6817 40025 2
55.3341 24.912 29.2511 40030 1
56.9832 23.4214 29.2961 23172 1
56.9881 24.9572 25.7028 18326 1
57.6957 25.848 28.3708 18330 2
58.7183 23.3184 27.0479 38629 2
60.1703 24.985 28.6407 20148 1
61.1651 25.0439 26.3082 199 2
62.626 23.3701 28.4115 19285 2
64.8222 25.1581 29.4163 20106 2
64.7489 24.2171 27.097 18327 1
62.8415 26.6511 27.3232 19229 2
65.712 26.7159 27.5095 18337 1
18.0047 69.8338 36.5939 62907 1
69.7735 24.2651 28.3387 1065 2
67.6103 25.8131 28.4399 19241 1
67.2404 24.5358 25.9543 31294 2
67.2265 23.2944 29.8824 31002 2
70.4023 25.3765 25.6985 44061 2
74.8021 22.7703 26.4062 39972 2
73.2845 25.3005 26.1244 44079 1
72.3657 23.2364 27.56 12457 1
71.8657 25.9333 28.0115 30290 1
73.9569 24.8734 28.3765 43162 1
21.699 27.0208 27.4981 52493 1
18.7095 27.2626 28.2483 63548 1
19.73 29.4025 27.1363 1933 2
18.086 29.6799 29.6712 1936 2
22.2177 30.7018 28.0568 1071 2
20.8219 28.3222 29.7161 63546 2
23.4217 28.1451 28.6097 63545 1
25.2028 29.3945 27.1514 1023 2
22.4966 28.8155 25.6675 975 2
25.7558 28.0487 29.971 1025 2
27.0418 30.3245 28.6399 40916 1
27.6391 27.7752 27.9823 39954 2
28.6642 30.1138 26.9557 19240 1
29.0904 27.7745 25.7764 41796 1
30.5423 28.506 27.5346 983 1
30.5652 29.7724 25.4575 1020 1
18.868 74.7576 31.0246 62998 2
29.9291 27.1513 29.5408 1949 1
32.2092 28.5163 29.4381 41845 2
33.2266 29.5492 27.0107 41885 2
33.313 31.0131 29.2426 1033 1
31.6199 27.2875 25.3654 43811 2
35.7193 28.2117 27.8149 40926 2
37.7413 30.2345 27.9897 2010 1
38.2986 27.8408 27.9691 1083 1
39.1146 29.2198 25.8489 1907 2
36.4612 29.6808 25.5502 2000 1
42.2593 27.2016 27.5487 41842 2
43.4451 29.9219 27.8436 43703 2
40.5267 29.4455 28.4936 40975 2
41.8179 29.1723 25.6612 1897 1
45.0641 27.8206 27.1249 40985 1
46.6039 29.9738 26.9594 41032 2
48.0094 27.5956 28.0118 40935 2
45.6469 28.7314 29.8252 41849 2
49.5877 30.2031 27.9614 1954 1
50.489 28.5179 26.8373 42717 1
50.8553 28.5708 29.2759 2027 1
52.103 30.8459 27.3671 1163 2
52.857 28.2829 27.8386 40996 1
55.2317 27.655 28.9401 20144 2
55.3133 30.4265 27.5184 248 2
55.7344 27.625 26.0419 19382 2
53.5017 29.315 25.7837 1105 1
58.4432 26.7967 25.8626 19227 1
60.1651 27.1217 27.5322 246 1
58.0576 28.8769 27.7246 19231 2
61.3758 29.4627 26.5372 2792 2
60.5196 30.6822 29.3585 200 2
59.4137 31.076 26.8519 1109 1
59.1672 27.6795 30.0888 19234 2
61.6736 28.4202 28.9625 19243 1
64.6155 29.3124 26.8313 19242 2
63.368 30.7341 29.1317 20214 2
68.4176 27.3638 26.3102 30998 2
69.9881 27.3967 29.1195 19186 2
67.23 28.4975 28.6507 12515 2
69.4726 29.6759 27.423 43818 1
67.0757 30.3509 26.1374 30833 2
69.2901 30.8551 29.8446 20158 2
74.2755 27.6752 27.7348 30993 2
71.4693 29.7368 28.7238 19294 1
73.3848 30.4973 27.7234 43804 1
71.6274 28.2241 26.5497 18339 2
72.6994 28.3662 30.0959 18336 1
71.5434 30.9822 25.972 43793 2
74.4781 29.8569 25.5221 39105 2
20.6416 31.4097 25.6179 72807 1
18.2252 31.7964 27.1071 63536 2
18.1763 34.8452 27.8618 1017 2
21.0175 33.5569 27.0397 1060 2
20.1587 32.0699 29.4268 1934 2
20.5223 34.8892 29.1825 63543 1
33.9405 74.52 33.285 23585 1
24.7179 31.916 28.8417 63681 2
24.1164 34.183 27.1965 43702 1
22.7126 33.9402 29.1067 1069 1
23.5231 31.8342 25.8938 72814 2
26.4386 33.786 27.7614 1070 1
26.6496 31.6704 26.2821 40917 2
28.5471 32.1738 28.3667 40965 1
28.563 34.3062 26.4424 1031 2
27.9086 34.8843 29.2438 1989 1
30.0774 34.0045 28.8542 2916 1
29.3521 31.8501 25.8498 979 1
30.9452 31.3215 27.9613 1940 2
34.6871 34.7437 28.2284 24974 2
33.3569 32.3684 27.0787 984 1
31.8445 34.4905 26.8907 1029 2
17.636 32.5238 70.1298 65130 2
35.5745 31.3937 27.5291 41893 2
38.9292 32.3914 27.0606 1199 2
36.7316 34.6874 26.425 41937 2
36.9667 33.2428 28.7387 1080 1
39.3639 34.7074 28.5731 20283 2
39.5057 35.3007 25.9021 19202 1
41.2374 31.4111 26.5957 42701 1
41.4444 34.0066 27.2022 2002 1
43.6754 32.3275 25.8267 41848 2
41.5798 32.2735 29.3396 2004 2
42.0103 35.2445 29.246 2944 1
43.8521 34.7349 27.554 2990 2
47.5326 31.2571 28.8565 2942 1
47.148 34.1167 28.0262 2067 2
45.0029 32.2754 28.6636 43700 2
46.5242 32.5729 25.6178 197 2
45.9694 35.2873 25.9528 1197 1
49.7943 32.9159 28.2214 237 2
52.0198 35.0132 29.1438 2022 2
51.7886 33.5127 26.6083 291 1
52.6744 32.48 29.3226 2902 1
49.0453 34.6341 25.5464 1211 2
49.322 31.4843 25.5547 41898 2
56.8453 34.6959 26.9694 19334 1
54.3531 33.3857 27.2854 20251 2
55.9415 34.2001 29.2618 1208 1
55.0762 32.0109 29.4863 249 1
57.1648 18.5381 62.5595 16709 2
57.6247 32.1521 28.5591 2077 2
59.3296 33.9637 26.7472 241 2
60.373 34.0459 29.1417 19233 1
58.1884 34.8355 29.2897 19235 1
31.8678 32.0115 25.3126 41022 1
61.9995 32.6719 27.1889 1112 2
62.4843 35.138 28.3045 43165 1
64.7219 32.1327 26.6653 18380 1
64.3126 33.3987 28.6373 19341 1
64.5331 34.8947 26.2843 19232 2
66.1234 34.8084 28.2712 19339 1
66.4511 31.767 28.7117 19289 2
66.9684 33.1922 26.4253 19288 1
68.812 31.8108 27.4744 20162 1
68.634 34.0399 28.2209 19293 1
67.8708 35.4743 26.5349 20215 1
73.8971 32.5866 26.3879 19297 1
71.2675 32.642 28.5605 19246 2
73.7606 34.9894 27.4988 43988 2
74.2672 32.8512 28.9113 19301 2
71.6049 34.6671 30.1568 19295 2
71.6895 33.7194 25.9998 18438 1
20.0566 37.2967 27.619 63542 1
21.9112 38.8073 29.2635 1979 2
19.7507 40.0872 27.4701 63537 2
74.6865 33.0674 41.1779 22960 2
26.8214 18.0973 72.8246 10011 1
22.4021 36.4037 27.5302 1988 2
24.6011 38.7926 27.462 2036 2
25.4018 36.126 28.9608 1075 2
24.3369 36.7244 25.9616 2034 1
29.6425 36.7218 28.22 1074 2
27.1213 36.8481 26.5532 41015 2
29.5665 39.7125 27.0627 1028 2
27.4178 38.681 28.6904 1122 2
26.9481 39.8464 25.7762 41016 2
30.1517 36.9801 25.5338 1027 2
34.9651 38.0752 28.3935 2829 2
31.6681 38.4169 28.0387 1079 1
33.0899 36.7299 27.0388 41936 1
32.5116 36.3781 29.7196 1997 2
32.3855 39.1899 25.7653 1135 2
18.8751 60.5536 25.498 53700 2
38.0415 37.3738 26.9399 41068 2
37.5452 38.6906 29.6659 2061 2
36.9079 36.0353 29.1651 1995 2
40.8257 36.579 27.3333 40988 1
42.2573 38.6607 26.0277 1204 2
42.7763 37.3951 28.709 2066 1
40.1432 39.4685 28.2871 41984 2
65.1178 18.4403 28.615 30999 2
44.46 37.1613 26.5358 1159 1
44.8056 38.756 27.9967 41031 1
47.1809 36.9048 27.6041 330 2
46.3256 39.2394 25.9116 286 2
45.1093 36.3356 29.4468 2995 2
46.5882 38.5484 29.8203 25017 1
48.3601 39.8741 28.0467 2119 2
49.7174 35.7873 27.8708 41035 1
52.2773 36.2606 26.6063 1155 2
51.5171 37.8913 28.8243 1162 2
49.5029 37.763 26.1652 40108 2
49.0027 37.6589 29.5549 1213 1
53.5917 39.1607 26.7363 18473 2
54.6142 36.4439 28.7901 20297 2
54.4057 38.8944 29.2923 388 1
57.0992 36.882 28.3478 19276 1
58.119 37.0533 26.0085 288 2
56.3041 39.1805 25.4507 41085 1
56.6385 39.4934 27.9957 18430 2
60.3812 38.8378 26.004 18381 2
60.1022 36.3665 27.9205 2121 2
59.054 38.6633 28.459 18376 1
62.6562 37.0029 26.6983 1119 1
62.1823 38.6691 28.6631 19286 2
64.2087 37.0625 28.512 20213 1
65.4598 39.219 29.3478 20260 1
64.2984 39.3042 27.111 44031 1
66.5095 36.7546 29.7034 20208 1
66.342 37.5871 27.1036 19281 2
68.9817 37.6903 27.4279 19290 1
68.0156 39.029 29.0481 163 1
70.6922 35.8102 27.2151 19349 2
70.709 38.407 25.7732 18383 1
71.1584 38.9955 28.764 18437 2
72.393 36.8104 28.982 25899 1
74.3476 38.5831 29.411 19352 2
73.0115 37.5317 26.9099 18386 1
74.5185 39.3804 26.9349 18489 1
19.4857 42.5898 28.6644 63648 1
20.3577 42.4749 26.4713 63678 1
21.4884 41.6346 29.0311 63529 1
22.4454 40.1617 26.9383 2045 1
22.5205 42.5696 27.0837 21093 1
23.6142 40.7234 29.2896 2039 1
24.8845 41.6711 26.599 41066 2
24.2284 43.2964 29.0415 63091 2
26.5784 43.7927 28.0515 2969 1
26.3917 41.0081 29.1274 2037 2
28.1775 42.1043 26.9344 43701 2
29.4524 41.962 29.8195 25055 2
30.5926 43.7024 28.1018 2090 2
30.8565 42.0746 25.5529 41883 2
34.1853 40.9905 27.9947 1998 2
31.4943 40.8994 28.0902 41941 1
33.0691 43.3431 27.1416 2051 2
34.4279 43.352 29.554 41940 1
37.3874 40.3157 27.4372 41072 2
38.2566 42.1976 29.3057 1202 1
36.407 43.5256 27.6409 41939 2
35.8618 41.0214 30.0504 2053 2
39.0923 42.6642 26.8247 3133 2
36.2824 41.9977 25.65 2056 1
71.561 75.0249 25.7628 20880 2
41.6988 41.3464 26.4431 1200 1
40.9655 41.9852 29.0949 1198 2
42.7941 40.1223 28.3714 25047 1
43.6062 43.0209 27.6248 1251 2
41.2886 43.612 25.512 41075 1
44.2071 40.7109 26.7189 25049 1
46.6274 42.3678 26.5527 1254 2
45.8557 41.2062 28.942 25018 2
50.9409 40.0705 27.327 290 1
48.8736 42.3784 28.2063 2113 1
51.4412 42.7468 27.3201 289 2
50.3707 40.4717 29.919 2074 2
50.3243 43.7924 29.889 2163 2
49.1717 41.366 25.5107 41038 2
53.7313 44.0534 26.6459 1307 1
55.1937 41.9662 27.5506 18427 2
53.3558 43.447 29.0001 39218 1
52.9234 40.9326 28.7409 20299 1
57.1487 43.7881 25.9757 1350 2
57.3852 43.2717 29.0402 19337 2
58.0828 41.1574 26.5128 19282 2
60.2061 41.255 28.4135 20206 2
59.6973 43.8122 27.5688 1255 1
58.0287 40.6436 29.7733 18378 1
61.7692 43.8405 29.7916 20298 2
61.85 43.0237 27.0376 18479 1
62.3763 40.6592 26.9579 18379 1
64.3159 41.8907 28.6125 19338 2
63.794 44.1334 27.7227 18435 1
65.9065 43.6065 26.8352 19384 1
66.6002 40.8059 27.2488 18433 2
69.4579 40.7683 27.1323 18439 2
67.8597 43.0836 28.0706 19396 1
69.6175 41.7945 29.4694 19340 1
72.2719 40.267 26.7389 18443 1
70.1265 43.5853 27.8065 19389 1
71.6982 41.6747 28.3365 20353 1
74.5167 41.6225 28.6972 20361 2
71.6939 42.8783 25.8469 19401 2
72.8846 44.1653 27.9891 2141 1
74.9529 72.1554 72.9318 25193 2
21.3013 44.5209 28.2409 63528 2
18.7711 45.1042 27.3362 63282 2
18.7637 47.5331 28.5508 63280 1
21.538 47.2506 27.0259 53468 2
20.8857 47.1296 29.5733 48662 1
24.1937 45.1117 26.7465 63650 2
23.8166 47.8973 27.9425 2088 1
25.5967 46.1096 29.4782 2044 2
23.1627 46.1063 30.0511 63083 2
28.3351 44.8531 29.6217 2971 2
27.0842 46.1241 26.949 41064 2
29.8183 46.214 27.3283 2049 1
28.7887 47.5945 28.7991 1131 1
28.9471 48.3252 26.5601 41062 1
30.6917 46.253 29.5453 2046 1
54.8152 74.7448 65.6286 13319 2
32.7192 46.2744 27.0865 2157 2
33.0723 47.0654 29.6051 2922 1
34.6914 48.4571 28.0665 2095 2
34.7855 45.5806 28.8992 3952 1
32.568 44.7658 29.5909 2979 1
31.3185 48.6278 28.2363 41946 2
32.6657 48.4826 25.794 2092 1
25.3183 64.0718 25.6359 63474 1
38.9288 44.4744 28.9974 2156 1
38.6027 45.7801 26.4243 41124 2
35.8859 46.2809 26.9394 41990 1
37.4345 46.7907 29.0816 2159 2
37.2523 48.5474 26.7182 2155 1
41.1224 44.4797 27.6618 1249 1
40.1193 46.3846 28.69 1292 1
43.3973 45.5247 27.559 2162 1
41.4022 46.7582 26.1029 1293 2
42.625 47.5473 29.219 25009 2
28.2575 52.4224 25.6443 50477 1
47.2549 44.3965 28.7927 1253 2
44.5927 47.3403 26.1033 2169 2
45.649 44.8896 26.9423 381 1
45.4712 46.8797 28.6182 21219 1
47.364 46.8331 27.3255 385 1
47.3155 48.8224 29.0304 2214 1
49.9316 47.2652 25.8097 1305 2
49.1398 44.4603 26.5532 340 2
51.3147 48.4221 27.823 1345 1
49.3538 46.6059 28.8746 2208 2
51.9704 45.5597 28.1947 25040 2
51.6158 47.6302 30.0473 1302 1
55.2407 45.3796 28.3887 1306 2
55.1942 45.4665 25.7621 1264 1
55.9584 47.8485 26.6493 19426 2
56.621 47.8024 29.528 21280 2
17.7785 53.0864 38.6903 56309 1
53.8597 47.487 28.9384 3089 1
58.4142 46.1243 27.6602 1303 2
61.8454 46.9595 29.8252 259 1
61.627 45.9645 27.3095 20338 2
60.5976 48.5912 28.0537 2172 2
59.5966 45.16 29.8773 25046 1
63.7568 45.8442 29.2496 20304 1
64.8984 46.3995 26.9498 19386 2
62.8168 48.1447 26.3164 1274 1
65.9938 47.2629 29.3169 25875 1
63.5599 48.5853 28.646 18534 2
66.0694 44.4423 29.3411 21284 2
67.9868 45.6546 27.2766 21192 2
68.7633 47.7745 29.4615 19439 2
69.2568 48.5527 26.2162 18476 2
66.8924 48.5247 27.5294 25042 1
46.3889 18.4054 31.4191 22534 1
70.9133 46.3155 27.806 19436 2
72.6563 45.1813 26.0115 18542 1
74.2247 46.5387 28.0427 20313 2
72.8897 48.2587 26.6443 19445 2
19.6323 49.4385 27.0979 63274 2
18.3875 52.183 27.1249 54461 1
21.5448 49.7244 29.098 48858 2
20.5253 52.9073 28.7354 63060 2
18.6801 50.7388 29.4162 63275 2
20.3841 52.1046 25.7059 63632 2
26.1818 48.8568 28.0113 63281 2
23.9312 50.5537 28.7295 63527 1
25.2228 51.3061 26.3052 2085 2
22.5818 51.8018 27.3092 63486 1
26.0328 52.3533 28.8823 63483 2
23.127 52.8211 29.8129 63234 2
22.534 49.7706 26.0734 48669 2
72.9602 18.244 44.1292 10538 2
71.8181 57.1932 25.3722 19584 1
28.5819 50.5162 28.0878 24951 2
29.8598 52.7918 27.3977 2040 1
29.2911 52.3525 29.9332 2973 2
33.1351 50.5569 27.1341 41115 1
31.2385 51.2045 28.3224 40237 1
34.7845 51.3314 28.5727 41120 1
32.763 53.1266 27.196 2048 2
40.4223 74.9767 46.6723 26227 1
37.4394 51.3179 27.1218 378 2
37.0853 49.5757 28.8281 63642 1
39.1101 50.6192 29.3937 1336 1
72.758 18.2773 49.4575 18364 1
39.6113 48.7366 27.8504 1294 2
40.6322 52.4545 27.6562 1339 2
42.3895 49.52 26.703 2200 2
43.6741 52.2001 26.6227 383 2
42.1884 50.5212 29.3181 2242 2
47.3146 49.0136 25.9441 41079 2
45.0302 49.6188 28.1111 1295 2
46.6683 51.4127 27.2138 394 1
47.9962 51.6985 29.7922 25836 2
45.3301 52.6447 29.1908 1389 2
49.239 49.918 27.712 2213 2
48.8463 52.4639 26.2096 3092 2
51.6851 50.4097 25.8962 25001 2
50.935 52.6755 28.2719 4065 2
51.752 50.4711 28.8594 1301 1
74.7865 73.4096 63.9874 9898 1
54.0097 49.655 27.7128 19428 2
56.331 50.9969 26.587 1268 2
54.1038 52.6431 28.2853 25885 2
55.8115 50.7017 29.6666 25890 2
61.352 18.5598 32.6088 22527 2
58.5827 49.8622 29.4254 1310 1
58.1652 49.0917 27.3674 19470 1
58.9379 51.5358 27.6479 3150 1
56.8816 52.9856 28.1363 1267 1
60.826 50.2977 30.5239 20342 2
61.743 51.0319 27.4804 19483 2
64.5551 51.4846 27.82 20397 1
65.0797 52.8233 25.8061 18526 1
65.2291 49.5647 25.9024 20344 2
67.2935 51.5251 26.8579 19482 2
68.8594 50.351 28.342 1224 1
66.3416 50.1637 29.5959 20351 2
68.2062 52.9211 29.3479 20391 2
70.2659 51.9448 26.7613 19488 2
71.3253 49.2934 28.3903 2268 2
73.2201 51.1351 27.1677 19532 2
71.2501 52.1504 29.5984 20394 2
74.1844 48.9045 29.3537 25005 2
73.5753 51.3895 30.2732 19485 1
19.1641 54.991 27.0459 63500 2
21.8288 54.7551 26.1474 63481 2
20.7903 57.2467 28.1144 48680 2
22.266 55.1893 28.657 63046 1
24.0992 53.7172 27.222 63235 1
24.1725 56.4188 26.066 63634 2
25.1027 55.4983 28.9358 63188 2
26.1824 54.3392 25.6703 2084 2
23.4608 57.3254 28.7799 63485 1
27.8539 54.5588 27.9187 2089 2
29.6757 57.0202 28.3657 3022 1
29.376 55.2635 26.1573 40191 2
27.0176 57.4294 27.358 63479 2
30.9082 54.892 28.8064 40239 2
32.1776 55.9744 26.0093 42703 2
33.6824 55.2341 28.3044 41977 1
35.6961 53.5289 27.3113 41170 2
37.2446 56.1788 26.9147 477 1
38.9679 56.5352 29.0949 3191 2
36.2333 55.5501 29.4612 376 2
38.4759 54.0896 27.4581 19545 1
39.53 56.1186 25.772 1343 2
42.894 53.6363 29.3955 1388 2
41.3567 55.2914 27.5019 481 1
40.286 54.3934 29.56 2201 1
42.9723 56.4669 29.2495 2289 2
43.6872 54.8105 27.2349 1386 1
46.0177 53.7192 26.858 2240 1
47.8518 55.5977 26.2753 1348 2
45.5991 55.2029 28.6126 1347 1
47.344 56.8573 28.578 1393 1
48.3426 54.2998 28.9634 1297 2
50.4641 54.8438 26.9227 19565 1
49.9323 57.0179 28.2065 20463 2
52.0253 56.5495 26.5065 1399 1
52.5353 55.2204 29.0548 1397 2
55.6747 54.8559 28.6524 19469 1
54.6228 56.3321 26.3559 20435 2
52.802 54.168 26.5755 1352 1
54.8952 56.9518 28.9905 19657 1
55.396 53.8774 26.1547 19473 1
57.3929 55.2743 26.7834 19517 1
60.487 52.8721 29.069 19379 1
59.9983 54.1723 27.0241 20390 2
58.5538 55.071 29.371 25887 2
59.3343 56.7057 26.8389 18630 1
61.7199 56.181 27.4797 25865 1
62.8376 53.8376 28.5359 19476 2
65.8157 53.9402 28.0923 19486 2
64.5149 56.745 27.6558 19570 2
63.095 54.858 25.6909 18633 2
64.3114 55.5517 30.4624 19478 2
74.551 30.4765 37.1419 21051 1
67.5591 55.8465 27.7914 19585 1
69.0708 56.8652 25.719 19586 2
68.4295 53.9705 26.5821 19523 1
68.9225 57.5459 29.2764 19626 2
70.4844 55.074 28.1162 19524 2
66.9531 55.7188 30.1374 20445 1
73.149 54.1007 29.4971 20447 1
72.5832 53.5321 27.2438 20402 1
73.3407 56.3685 27.1548 20444 2
74.8502 55.8321 29.5917 20446 1
72.1048 56.4975 30.0314 19588 2
71.0011 57.7579 27.6526 20488 1
17.9735 58.1703 26.7971 63187 2
21.5095 59.4901 26.6966 63438 1
19.5931 59.9993 27.9705 63040 1
19.26 58.5369 29.883 63185 1
22.0398 59.9152 29.1738 63183 2
63.4063 18.3826 30.8724 12512 1
24.3826 59.336 27.2378 63433 2
25.8007 58.5323 29.5887 53648 2
26.2336 61.2311 28.5573 63042 1
22.8247 61.2309 25.7346 63598 1
28.5437 59.54 28.9445 63272 2
27.1319 59.9422 26.7234 63410 1
29.3934 60.9499 26.7247 53557 1
29.9707 58.3504 26.0157 25023 2
32.0403 57.9209 28.287 2982 2
31.1542 60.3989 29.2678 3012 1
33.5148 59.8325 28.971 24941 1
32.105 60.7971 26.6068 1382 2
35.2245 57.8219 28.0203 428 2
33.2483 58.6277 26.0026 41981 1
35.4888 60.6046 27.2175 24999 2
38.2626 58.5075 26.0008 1338 2
37.758 59.3038 28.7985 1385 2
39.3027 61.4996 27.3118 24937 2
40.7769 58.4995 27.5419 429 2
42.0036 60.9639 27.6921 19607 1
43.3216 58.9411 28.4177 1387 1
43.3449 59.6466 25.8497 479 2
40.7075 60.8345 30.0447 1436 2
45.0763 57.2773 27.1122 1390 2
45.5849 60.451 27.5055 1445 2
47.7502 59.1066 28.8896 2294 1
48.1477 61.3638 27.2518 1444 1
47.8281 58.5017 26.5239 1447 2
46.5622 60.8814 29.7831 2337 1
52.3632 61.3745 25.929 2342 1
75.1326 45.073 73.8992 27825 2
50.4373 59.9805 27.1403 19569 2
51.9287 60.8472 29.6006 25035 1
49.1956 61.7108 29.5038 2387 2
52.6828 58.2549 28.5031 1398 2
50.0357 58.9825 29.979 3201 2
57.1947 57.7832 28.1856 448 2
53.6098 61.066 27.9799 24996 1
55.2043 59.4304 26.6905 20473 2
55.9965 61.6797 28.519 25862 1
55.1093 59.4333 29.8747 20470 2
57.7205 60.8179 26.9659 19618 2
60.0203 58.1458 28.7642 444 2
61.1062 60.8364 27.7522 20476 1
62.2348 58.8494 27.1413 19572 1
64.597 59.5069 27.9944 19520 1
63.1553 61.5302 26.1606 19580 2
63.1488 60.934 29.4778 19623 2
62.8363 58.2934 29.8189 20428 2
65.7506 61.2689 29.4179 20528 2
65.9068 58.3102 30.2399 19578 2
66.1776 61.149 26.3294 546 2
66.7967 58.3486 27.2621 1420 2
69.5997 60.2319 27.2734 20487 2
68.045 60.2087 29.268 20483 1
69.5181 62.3292 30.2576 20492 2
74.3886 61.4374 28.6549 20497 2
72.6497 59.6417 27.1934 20485 2
74.3297 58.4074 29.1386 20489 2
71.6131 61.8383 28.4475 21396 1
71.1884 59.4779 30.0136 20537 2
71.4706 61.8014 25.8583 19632 1
35.0849 55.7674 25.4574 41126 2
20.919 62.1887 27.528 63425 2
20.2773 65.6741 26.9963 54635 2
19.031 63.4437 26.0815 53783 1
19.8026 64.3737 29.6953 63146 2
72.0339 73.063 72.6803 15179 2
24.0648 62.5543 27.7039 54632 2
25.6902 65.4501 27.9517 63028 2
22.7379 64.7415 28.5972 48872 1
22.5876 64.3778 25.8464 63600 2
22.197 62.452 29.9484 63233 1
75.0494 63.7158 61.2456 27079 2
28.8494 62.0343 29.3462 48774 1
27.6324 62.9718 26.7694 63227 2
27.7862 65.8705 26.0311 5799 2
28.7881 65.064 28.8176 63176 2
26.7995 63.4166 29.4277 63043 1
30.6323 63.1745 27.6005 24954 2
30.8009 65.2636 25.9162 5309 2
33.8417 62.5315 28.8586 3025 2
33.7251 64.0672 26.8279 19499 2
32.2116 65.0289 28.8827 2284 1
36.7218 62.2315 28.7224 20458 1
36.9005 62.9871 26.1903 2288 2
39.0336 65.3595 27.0859 2328 2
36.1037 64.8428 28.5441 3184 2
38.927 63.631 29.4145 1384 2
35.6074 66.3371 25.9038 24997 2
41.9071 61.9657 25.6866 25906 1
43.7102 61.5201 29.7877 1441 2
41.6885 63.6025 28.0638 1439 2
40.6668 66.0846 29.5329 2331 1
43.8699 62.5706 26.9838 1391 1
42.1868 66.1732 27.447 572 1
44.2201 63.7634 28.9233 1438 1
19.7357 74.9275 63.3399 10800 2
46.6794 63.4456 27.9396 1443 2
45.294 64.0787 25.7785 19616 1
45.287 65.7085 30.1023 19652 1
22.1716 17.9943 61.0447 10014 1
74.909 64.4038 36.8584 21495 2
49.1926 63.968 27.9824 25036 1
51.7663 63.1429 27.9533 19617 2
50.7803 65.7266 29.7074 2388 2
50.3111 66.2372 26.8569 1446 2
54.5987 62.0858 26.1425 18770 1
54.5094 63.6597 27.7535 19665 1
57.1253 62.8704 30.3668 20518 1
53.1417 64.957 29.6271 1490 1
55.838 65.5682 29.1478 2430 2
57.1497 63.767 27.1406 20521 2
17.7465 35.0207 66.2995 12129 2
60.5317 65.5832 27.0714 19670 2
58.4702 65.0808 28.8265 20522 1
59.6287 62.6929 28.9452 20525 2
60.218 62.5886 25.9828 18729 2
62.0274 63.2488 28.0777 25860 1
64.7173 63.412 27.1276 19625 1
62.695 64.2514 25.9417 1455 1
64.9618 65.5965 25.7324 2354 1
63.3595 65.3718 27.7791 19624 1
66.1364 65.3926 28.4435 21433 2
67.2776 63.9596 26.4869 602 1
67.7494 62.5728 28.2776 20533 1
69.9334 63.6611 27.2925 20527 2
68.6926 64.9711 29.4132 25854 1
73.2594 63.4677 26.8501 19679 2
72.1451 65.8599 27.741 21693 2
71.2559 63.9401 29.4113 19639 1
73.8051 64.2219 29.7497 22549 2
74.8305 65.8182 27.4299 22590 1
53.9998 68.6271 25.5007 19710 2
19.2204 68.2478 27.3525 54678 1
21.5296 68.6923 26.9006 63142 1
21.2588 67.4525 29.4468 63177 2
18.6832 66.7019 29.1475 50692 1
20.0061 70.2404 29.1161 54810 2
71.6554 71.4988 70.6718 14222 1
22.9735 66.7336 27.3626 63141 1
23.4317 69.4034 28.8985 54677 2
25.1296 67.88 27.4603 63140 1
23.849 69.3842 25.7947 48693 2
23.9056 66.6033 29.5791 55685 1
25.9663 69.9923 27.7446 63124 1
27.803 67.958 28.0547 63144 2
26.7974 68.7774 25.8745 55682 1
29.3305 68.0761 26.1411 1383 1
29.6563 70.3797 27.9149 63139 2
32.9869 66.5554 26.775 24853 1
30.8277 67.1987 28.3846 63037 2
31.7912 68.8761 26.2191 63014 2
34.3437 68.4636 27.0917 48819 1
32.8762 69.4564 28.9768 4408 2
33.9838 67.0565 29.2792 5806 2
38.3738 66.7163 29.4387 2332 1
35.7333 69.9118 28.8493 3598 1
37.1076 67.9814 27.7808 2373 2
38.3441 70.3897 28.7216 2419 1
38.3465 70.2431 26.1337 4204 2
17.8962 64.7338 27.8151 55588 1
40.2527 68.2565 27.9347 1482 2
42.8884 69.4347 27.644 579 1
43.0567 67.6632 29.6047 2420 2
41.9922 69.9861 29.7991 1485 1
40.6222 59.8533 25.36 41125 1
47.9058 66.0976 28.7553 19614 2
44.7493 65.8645 27.5732 1442 2
47.0834 66.8982 26.4847 525 1
45.5632 68.4352 28.1015 578 2
48.5192 68.7896 27.0627 1528 1
47.8265 70.0907 29.7992 3294 2
53.2107 66.1076 27.3017 2381 2
49.7253 68.199 28.7979 2338 1
51.1809 69.1742 26.3488 1488 2
52.0822 67.9658 28.565 2427 1
53.8615 69.9398 28.6261 1533 2
55.3585 67.7605 27.6556 2425 1
56.4385 68.9776 29.8587 2439 2
60.4893 69.3107 26.8264 19718 2
59.0736 68.0415 29.1928 20569 1
58.6546 70.396 29.5139 25855 1
57.8341 67.0262 26.9445 25882 2
57.5605 70.0847 27.1328 19667 2
61.4391 67.6587 28.6098 20571 1
63.4273 69.791 25.8657 21779 1
62.7808 67.3206 26.3056 18779 2
65.4925 67.7124 27.0504 20529 2
63.2446 69.2931 28.2095 21735 1
65.3105 68.8392 29.53 19669 1
69.7444 66.2795 29.7517 23502 2
68.4353 66.5604 26.858 18736 2
70.4366 68.1424 27.8497 25816 1
70.1746 70.0198 26.3771 18741 1
67.8032 68.9459 28.1524 22589 2
73.1663 68.7444 27.0287 2592 2
71.9788 68.0598 29.3971 25853 1
74.21 69.6844 29.3569 21748 1
74.5214 67.1216 29.654 22592 2
71.0645 67.4128 25.74 2396 1
19.4862 70.5922 26.1035 54856 2
18.6266 72.9605 28.6964 54859 2
18.7001 74.199 26.1998 63363 2
21.597 73.765 27.508 63116 2
22.0567 71.1286 27.275 63128 1
22.0622 72.3066 30.0053 62901 2
51.268 74.7519 31.8265 23480 1
24.3752 72.4639 26.5872 63118 2
24.6845 71.7257 29.091 63010 1
26.5775 73.7876 28.607 48908 1
23.9164 74.2697 29.1867 4505 2
27.8291 74.6289 26.4104 3538 1
28.6801 72.515 29.5176 4507 1
27.3726 71.9813 26.948 63125 2
30.2839 73.5889 27.3054 3587 2
27.1488 70.7107 29.8815 4452 2
31.1901 72.3412 29.8654 3543 2
34.7207 71.289 27.2665 21775 1
32.395 71.6565 27.6396 4458 1
33.4205 73.9892 28.5318 3599 2
32.7386 73.2551 26.0955 4512 1
34.5391 71.8127 29.6215 3544 1
49.7831 17.994 57.0626 17596 2
38.8216 73.1023 25.9943 22511 2
36.9385 71.9413 27.6363 3597 1
39.0061 73.3169 28.9319 4520 2
35.7333 74.2453 26.5827 3602 2
59.6098 59.5164 26.1003 19575 2
42.6372 73.5221 26.0426 577 2
40.8865 71.3096 27.6662 2374 2
42.1213 73.7319 29.3607 1532 2
40.4862 74.5728 27.0836 19699 1
74.7828 41.6621 37.7998 22062 2
44.1762 71.4387 29.1772 1483 2
44.8366 70.4302 26.6642 530 1
47.0469 71.2775 27.0785 3300 1
45.0002 73.1204 26.973 1487 2
47.0246 72.9234 29.1803 2424 2
74.7118 56.4853 34.6391 21348 2
48.9601 74.0968 27.1569 1531 2
49.524 71.2861 27.8643 2426 2
51.7523 73.7462 27.8675 21736 1
52.125 71.988 29.2674 22630 1
52.5471 71.4347 26.8991 2431 1
52.3986 73.995 30.133 22632 1
54.0615 73.1308 28.0735 21526 1
55.0991 71.3834 26.0081 25821 2
55.3591 74.5995 29.2769 21729 1
56.5704 72.0752 28.8295 21476 2
55.9143 73.9921 26.8676 12850 1
53.6314 74.664 25.7422 22631 2
57.7059 72.7193 26.1954 2432 1
58.3467 74.6752 28.3412 20618 2
59.8957 72.2719 27.6083 20619 2
60.4064 74.429 25.8277 21788 2
58.7272 72.7601 30.1922 20616 1
61.3487 73.413 30.0677 21730 2
62.4611 71.4738 27.4134 25856 1
65.3959 71.0471 27.8379 20824 2
63.21 74.0917 27.4437 22588 2
63.7077 71.8807 29.518 25778 1
64.0763 74.3784 29.9509 23542 1
68.9679 74.9972 27.9691 21787 2
68.7447 71.8644 28.4443 21737 2
66.6315 73.3861 26.5046 21781 2
66.5522 73.5967 29.5519 22638 2
69.6962 72.7625 25.823 22688 2
67.8516 70.8156 26.2449 21740 1
71.5041 70.6855 28.8348 22642 2
72.153 71.5259 26.4784 21785 1
71.2382 73.2068 28.1317 25817 1
73.8843 73.465 26.5524 20834 2
73.9842 72.5392 29.0616 21791 2
74.5345 36.0173 39.9635 3940 2
21.2218 19.2808 32.8922 2716 2
19.5961 22.2874 32.1614 20051 2
18.3391 19.5034 31.8446 59349 2
20.9683 20.8498 30.4014 25064 1
74.6371 43.5507 42.3426 25800 1
23.1263 19.2705 30.6925 20009 2
24.9849 21.9068 30.8997 24990 2
24.5043 20.4428 33.7449 3701 2
22.4906 22.054 32.5149 1841 2
26.2298 18.935 31.2684 784 2
26.9094 21.0936 32.9221 2772 1
27.9898 21.1447 30.2304 2717 2
28.9454 19.0696 32.5589 1847 2
29.3853 21.7875 32.6603 2776 1
31.2041 22.2579 31.3301 936 1
30.713 19.9035 30.5427 1891 2
26.747 18.6234 34.2582 3652 2
33.4315 20.5815 31.7393 987 1
31.7526 20.3449 33.6467 3653 2
34.3714 22.3242 34.3953 1948 2
38.8719 19.1779 30.6703 21910 2
36.159 21.0131 32.0782 1900 2
38.6599 19.3139 33.6291 3663 2
39.1251 21.7368 32.5377 3662 2
36.6811 18.4655 32.147 3659 1
39.7815 21.6393 29.937 3657 1
35.3217 19.4013 34.6335 3660 2
41.8811 20.2611 31.4513 22582 2
41.5233 19.9846 33.7856 25771 1
44.1461 18.869 33.7214 3667 2
44.571 19.9844 31.4157 12875 1
46.1609 21.4273 33.6247 2791 2
47.1279 18.614 34.0003 21060 2
48.2417 20.2126 31.5559 23264 2
42.4926 56.9712 25.5833 435 2
48.8947 22.3052 33.9549 2736 2
50.6861 21.6667 31.8619 21895 1
51.5337 18.8738 31.3413 3670 2
50.102 19.7385 33.4609 22528 1
51.855 21.8548 34.3176 22570 2
53.1326 21.3309 31.2548 2785 2
53.4355 19.8982 33.4639 21898 1
55.72 21.1293 30.084 23127 1
55.7964 20.1775 32.585 22564 2
54.4575 18.5037 30.0709 22533 2
54.5072 22.238 33.9577 2851 1
17.7191 64.7176 45.1327 56547 1
57.5685 18.9847 29.96 11602 2
57.9512 21.5762 31.0834 23632 1
58.31 19.3009 33.0788 21893 2
59.9655 19.9654 30.9367 20993 1
60.3282 21.904 32.7354 20141 2
62.3812 20.7799 29.8738 38322 2
64.9689 20.11 30.6905 12897 1
63.4927 20.5398 32.8463 25850 2
65.3899 18.8138 34.0119 31025 1
55.2169 36.6392 25.9152 44000 2
66.7243 21.0789 32.4744 11550 2
68.9335 19.2099 31.4274 30802 2
70.246 20.5562 33.4064 1659 1
67.6894 22.4539 34.7089 12415 1
71.9232 20.2584 31.1003 22613 2
74.3971 22.0378 32.2298 30808 2
72.6056 19.8867 33.7266 12506 1
71.8397 22.1166 33.1862 11516 1
65.1779 17.6528 47.1805 8444 2