ITEM: TIMESTEP    
100000     
ITEM: NUMBER OF ATOMS  
77888     
ITEM: BOX BOUNDS pp pp pp
17.607 132.393    
18.0782 131.922    
23.4297 126.57    
ITEM: ATOMS x y z id type
19.3706 20.3916 24.1069 72779 2
21.6058 21.3448 26.1075 977 2
20.9972 18.4378 25.6018 1839 2
23.9863 19.3837 25.5997 23170 1
24.1824 21.619 26.5698 1848 1
25.8654 19.8341 27.2763 22628 1
24.706 21.4982 24.0905 926 1
26.6301 20.1611 25.2446 72824 1
29.6979 20.9343 25.802 20062 2
28.1874 18.4462 26.7467 1845 2
28.439 19.1371 23.4772 22548 2
30.922 20.0395 23.56 2719 1
32.3291 20.3162 25.8061 43709 1
35.2244 20.0753 25.3705 1851 2
33.3496 18.9867 23.5885 24988 2
32.1679 22.1253 27.596 25026 1
37.7881 21.1424 24.0883 22537 2
37.1553 21.4906 27.2197 1899 2
39.3053 18.7554 23.9393 1904 1
37.6466 18.3959 25.9224 22536 2
40.276 20.3679 26.0309 1854 2
42.98 19.012 26.5413 23128 2
42.668 22.1591 25.2512 40934 2
44.0068 21.4186 27.4116 21871 1
42.3858 18.3202 23.887 23153 2
40.9266 20.5449 23.4413 43666 1
45.0109 20.1002 24.9108 1099 2
47.5863 20.5746 25.0474 40834 2
46.041 19.4905 27.6332 22576 2
48.0673 21.687 27.1524 1908 1
50.2932 18.7775 24.6075 38521 2
50.1166 21.5933 25.0315 40893 1
49.7652 19.7892 27.4343 22529 2
52.47 19.6419 27.2557 22574 1
51.2456 22.2797 27.3079 1110 2
52.6798 20.9644 24.6698 38365 2
56.1014 18.7352 24.7253 21944 1
54.9309 19.8792 26.3676 12513 1
55.782 21.5226 24.2657 39988 2
57.3654 20.7683 26.5258 13500 1
60.869 21.5563 24.7248 31298 2
59.9478 19.207 26.6764 19184 2
59.8311 22.1224 27.3927 31285 2
61.1672 19.1444 24.1672 31004 1
58.3441 19.8097 24.0572 38509 2
65.3126 18.4969 26.6536 30999 2
65.3909 21.9262 26.2431 21892 2
63.3606 20.426 25.6208 31021 1
65.4522 19.6298 24.168 30371 1
62.5453 18.4016 26.4718 31001 1
67.9215 20.0235 25.2699 31023 2
69.6338 21.3879 27.5452 19245 2
70.4663 18.6179 27.4431 38366 1
69.6007 18.1974 25.2763 30315 1
71.25 20.5008 25.6079 30996 2
73.9788 21.6084 26.6714 12413 2
73.2699 18.5457 26.7874 21403 2
74.9689 19.4989 24.4354 31289 2
20.8931 23.9983 26.2698 25062 1
18.9799 25.3533 25.2776 970 1
18.6628 22.6213 25.8822 1928 2
21.2086 26.0526 24.9208 52493 1
20.3929 23.5805 23.5975 19183 2
23.2501 26.116 26.4068 1888 1
23.3708 23.8974 24.9462 25024 2
25.501 25.4242 26.2433 1945 1
24.6869 26.7978 24.1221 25061 2
25.4554 23.3707 27.6055 1884 1
26.7159 22.9024 25.4953 1846 2
29.1843 23.3785 25.3286 1895 1
27.6806 25.3837 24.3446 1943 2
30.3871 26.0034 26.1341 40920 2
27.8136 25.1862 27.5761 1889 2
35.2614 22.847 24.8849 40928 2
32.1324 22.9903 25.1235 989 2
33.9294 25.6036 25.4738 1035 2
32.4279 24.692 27.2802 25060 1
36.8288 25.1628 26.2408 2729 2
39.5207 26.3091 25.3525 2836 1
39.4418 23.7527 26.5251 3770 2
36.0672 25.2163 23.6722 40922 1
38.6606 24.4389 23.5048 43667 2
40.0485 22.5362 24.2269 2790 1
41.2645 24.6424 24.57 1956 1
41.9065 24.8453 27.0107 2782 1
43.7159 24.7301 25.2804 41801 1
43.8823 23.9418 27.6184 22532 1
45.6154 22.8352 25.788 43705 2
46.1532 25.6578 24.7075 40939 2
46.7378 24.9749 27.2311 1153 1
44.6639 26.7136 27.1106 2837 2
48.7254 24.0466 25.8047 40989 2
50.5905 26.4382 26.4099 2020 2
51.8918 23.9195 24.7793 19180 2
49.0577 26.198 23.446 23205 2
54.255 22.5553 26.9427 23176 2
53.2673 26.1198 26.0863 23642 1
55.3503 25.1969 27.5127 40030 1
55.0926 24.5398 24.856 40025 2
56.9183 23.2924 27.6344 23172 1
57.659 25.9396 26.3494 18330 2
58.1653 22.9957 25.2912 38629 2
59.8735 24.7435 26.8678 20148 1
60.4135 24.6312 24.1665 199 2
57.4001 24.9233 23.7687 18326 1
62.6069 23.6242 26.3554 19285 2
64.9045 25.4181 27.2928 20106 2
64.7827 24.2867 24.9158 18327 1
62.8636 26.5905 25.1044 19229 2
63.0004 23.2426 23.6148 30803 1
65.6739 26.7977 25.1013 18337 1
67.9518 22.6578 25.4769 31293 1
69.8839 22.6136 23.8488 31019 2
69.942 24.5605 26.376 1065 2
67.6783 26.2871 26.3786 19241 1
67.4759 24.8985 24.0985 31294 2
70.58 25.8065 23.675 44061 2
72.0406 23.1139 25.1336 12457 1
72.1563 26.3191 25.6892 30290 1
73.6994 24.5802 26.3228 43162 1
73.5199 25.4921 23.9879 44079 1
17.8459 27.5134 27.3783 63548 1
19.5129 28.1868 25.5607 1933 2
21.4783 30.8581 25.8849 1071 2
18.2708 31.1965 25.2892 63536 2
22.4454 28.2322 26.4828 63545 1
24.3445 29.8087 25.054 1023 2
25.1417 27.9703 27.27 1025 2
22.2675 28.2312 23.4323 975 2
26.5158 30.195 26.5153 40916 1
26.6538 28.5951 23.8575 986 1
29.2989 27.6439 23.8973 41796 1
27.7976 27.8758 26.1113 39954 2
28.5258 30.1816 24.9372 19240 1
30.5581 28.8543 25.7203 983 1
32.6349 27.814 27.3386 41845 2
33.093 29.6646 24.8808 41885 2
33.8333 30.582 27.257 1033 1
31.9798 27.0038 23.76 43811 2
35.6083 28.3153 26.2026 40926 2
37.4715 26.9296 24.3144 2779 1
37.8164 30.0811 26.4238 2010 1
38.0392 27.6357 26.5398 1083 1
39.2873 28.8835 24.1809 1907 2
36.8604 29.8147 23.9669 2000 1
42.1531 27.0419 25.6464 41842 2
43.5503 29.9034 25.8386 43703 2
40.504 29.4426 26.9479 40975 2
41.092 31.0617 24.6471 42701 1
42.1837 28.9029 23.692 1897 1
44.5304 27.7507 24.4077 40985 1
46.3186 30.1888 25.0796 41032 2
47.7264 27.5229 26.1299 40935 2
52.0094 26.9551 23.6861 1165 2
48.9273 29.9478 26.1938 1954 1
50.3853 28.7244 24.8828 42717 1
50.8758 28.9914 27.4566 2027 1
51.9343 31.1348 25.457 1163 2
52.8994 28.5 25.8901 40996 1
55.2903 27.9139 27.0641 20144 2
55.2636 30.6839 25.4746 248 2
55.6741 27.6756 24.1095 19382 2
53.3603 29.2015 23.6301 1105 1
60.3287 27.0558 25.4729 246 1
58.1038 29.1221 25.6463 19231 2
61.1847 29.475 24.3591 2792 2
60.1996 30.9357 27.2991 200 2
58.3753 27.0196 23.9793 19227 1
61.8577 28.8595 26.7858 19243 1
64.2444 29.2401 24.969 19242 2
63.5247 30.8757 27.1694 20214 2
68.3008 27.8369 24.0629 30998 2
70.1777 27.5885 26.8333 19186 2
66.9691 28.9491 26.5571 12515 2
69.3493 29.9548 25.5014 43818 1
66.6614 30.5448 23.921 30833 2
74.4872 27.9638 25.3764 30993 2
71.4582 30.0544 26.5152 19294 1
73.2947 30.9551 25.3342 43804 1
71.7304 28.7178 24.2195 18339 2
72.7808 27.9879 27.2844 18336 1
18.8704 34.2348 24.6677 1017 2
20.6417 35.1689 27.3049 63543 1
20.6067 31.9558 23.7487 74584 1
18.1866 35.3003 27.2877 2808 1
21.6292 33.9063 25.1791 1060 2
19.5636 32.5548 27.4982 1934 2
24.4215 32.5529 26.2022 63681 2
24.2402 34.918 25.1305 43702 1
23.0171 34.7613 27.4698 1069 1
26.4242 34.1711 25.6701 1070 1
27.8359 32.4052 26.314 40965 1
28.7533 34.2846 24.369 1031 2
26.6077 31.604 23.941 40917 2
29.9634 33.9517 27.0341 2916 1
30.5417 31.7324 25.5958 1940 2
27.6046 34.593 27.6014 1989 1
34.2326 34.5402 26.5571 24974 2
33.1132 32.3165 25.2474 984 1
31.74 34.8629 25.0327 1029 2
35.5805 31.7217 25.5777 41893 2
38.7414 32.2867 25.1821 1199 2
36.5438 34.7941 24.6458 41937 2
39.0275 34.7937 26.9941 20283 2
36.8824 33.2138 27.1888 1080 1
39.1861 35.2853 24.2299 19202 1
40.9852 34.1198 25.3602 2002 1
43.4041 32.573 24.139 41848 2
41.7841 32.2173 27.0503 2004 2
41.8149 35.2476 27.3761 2944 1
43.9199 35.0289 25.7945 2990 2
47.5804 31.5844 27.1298 2942 1
47.0252 34.5735 26.2 2067 2
45.2814 32.5725 26.5924 43700 2
46.4561 32.8544 23.8618 197 2
49.5298 32.8912 26.2232 237 2
51.9812 34.3036 27.401 2022 2
51.5798 33.6242 24.6258 291 1
49.0795 31.5015 23.6702 41898 2
49.8392 35.5202 25.8997 41035 1
56.9366 35.1106 25.681 19334 1
54.1785 33.7195 25.2854 20251 2
54.591 32.9 27.6135 249 1
57.2786 32.4744 26.5038 2077 2
55.1166 35.1719 27.3321 1208 1
59.2538 31.2412 24.787 1109 1
59.0993 34.0117 24.6051 241 2
61.6598 32.5021 25.2216 1112 2
59.873 33.7307 27.4288 19233 1
61.4168 35.4623 23.6514 1111 2
61.8256 34.8697 26.4112 43165 1
64.5159 32.1593 24.77 18380 1
64.1933 33.6079 26.5094 19341 1
64.0623 35.1826 24.379 19232 2
65.997 35.2979 26.5693 19339 1
66.344 32.0594 26.8803 19289 2
66.5192 33.6913 24.8714 19288 1
68.5232 32.0243 25.4729 20162 1
68.457 34.1356 26.4067 19293 1
73.9549 32.5846 23.9186 19297 1
71.1346 32.7902 25.3557 19246 2
73.104 35.0267 24.7526 43988 2
74.6005 32.9269 26.783 19301 2
71.7531 34.19 27.6304 19295 2
19.8649 36.8575 25.5015 63542 1
19.9065 39.7688 25.4541 63537 2
24.4184 37.0214 23.6019 2034 1
22.2565 38.96 27.4385 1979 2
22.5661 36.8949 25.879 1988 2
24.8684 38.9865 25.4248 2036 2
25.5031 36.4581 26.9283 1075 2
29.2672 36.4644 26.6053 1074 2
27.1596 37.0076 24.2735 41015 2
29.9903 39.2884 25.2215 1028 2
27.7767 39.1089 26.5884 1122 2
34.2948 37.4604 26.6105 2829 2
31.9418 37.4931 25.8371 1079 1
33.9916 36.1043 24.4703 41936 1
32.9137 38.9192 23.6579 1135 2
37.9116 37.5869 25.4417 41068 2
35.3917 39.8952 25.4961 1998 2
40.862 36.6311 25.3958 40988 1
43.2624 38.3999 24.5153 1204 2
42.7897 37.3624 26.8975 2066 1
40.429 39.1748 25.7466 41984 2
45.4209 38.8474 26.6603 41031 1
47.9071 37.3124 26.3966 330 2
46.7107 39.2844 24.4265 286 2
45.3176 37.0226 25.0996 1159 1
47.1187 36.0563 23.9026 1197 1
52.419 36.43 25.1162 1155 2
50.8436 37.7014 27.2653 1162 2
49.5223 37.7439 24.1586 40108 2
50.4495 39.8092 25.5864 290 1
53.3694 39.4119 25.7812 18473 2
55.3523 37.4425 25.1438 20297 2
55.5289 39.2798 27.37 388 1
56.8156 37.0407 27.5448 19276 1
56.5989 39.2377 23.6185 41085 1
60.5365 38.8506 24.0248 18381 2
59.2639 36.2444 26.8695 2121 2
58.0803 39.2051 26.1734 18430 2
60.7616 38.9331 27.1279 18376 1
58.0916 36.8468 24.1602 288 2
61.6501 37.0195 25.8099 1119 1
63.2856 39.0035 26.3181 19286 2
63.7765 36.4578 26.7825 20213 1
63.3616 37.7426 24.001 19236 1
65.9664 37.9698 25.3511 19281 2
65.1395 39.6313 23.6625 44031 1
65.6315 39.8822 27.6728 20260 1
70.1295 35.7326 25.1177 19349 2
67.3458 35.8903 24.6321 20215 1
68.5158 37.9441 25.0746 19290 1
68.0165 39.5756 27.0471 163 1
68.4351 36.7358 27.6756 19291 2
70.6688 38.1281 23.7362 18383 1
74.6903 39.1974 24.5219 18489 1
70.8615 38.7288 26.589 18437 2
72.2294 36.5483 26.6181 25899 1
74.0261 38.5917 27.1668 19352 2
72.8562 37.6126 24.5967 18386 1
19.2729 42.1683 26.7335 63648 1
20.2666 42.4206 24.526 63678 1
21.6699 41.6611 27.1256 63529 1
22.5235 40.4718 25.1758 2045 1
24.1306 41.0878 27.1548 2039 1
22.8754 42.8735 25.3904 21093 1
25.1714 41.9636 24.5611 41066 2
24.4413 43.7001 27.255 63091 2
26.578 44.0554 25.9552 2969 1
26.6802 41.6498 27.1918 2037 2
28.534 42.5156 25.0527 43701 2
29.8364 41.5202 27.6919 25055 2
27.4549 40.1139 23.554 41016 2
31.2133 41.6238 24.0418 41883 2
31.528 43.6674 26.159 2090 2
32.4486 40.0782 26.4095 41941 1
34.1695 42.7007 25.5938 2051 2
32.3344 44.0957 23.5486 24950 1
38.1447 40.2237 23.7943 41072 2
38.2461 40.6487 26.316 1202 1
36.2233 42.1767 23.8923 2056 1
37.3863 43.6707 26.0127 41939 2
36.1178 41.6025 27.7102 2053 2
40.0813 42.4015 24.4919 3133 2
42.23 40.8566 24.7634 1200 1
40.6285 41.8254 27.2019 1198 2
43.1682 39.9995 26.9016 25047 1
43.3555 42.939 26.3162 1251 2
43.8226 42.7676 23.6351 41081 1
42.0365 44.3221 23.7655 41075 1
44.7398 40.9588 25.1196 25049 1
48.1156 40.4085 26.6752 2119 2
46.604 43.324 25.1602 1254 2
49.1925 41.5991 23.7946 41038 2
49.5954 42.4742 26.515 2113 1
51.9638 42.1578 25.2154 289 2
54.428 43.7405 24.6497 1307 1
55.6219 41.2285 25.269 18427 2
55.1811 43.2756 26.9922 39218 1
53.6885 41.6936 27.3822 20299 1
56.9939 44.2302 23.8201 1350 2
58.3684 41.5775 23.9085 19282 2
57.8055 42.9028 26.6781 19337 2
60.4784 41.4886 26.0136 20206 2
61.6917 43.978 27.2514 20298 2
59.6665 43.8246 24.9443 1255 1
61.8845 43.1667 24.3559 18479 1
62.6727 40.6532 24.5879 18379 1
64.1722 41.8738 26.5408 19338 2
63.9195 44.3332 25.2855 18435 1
66.2495 43.6962 24.524 19384 1
66.6114 41.1026 25.326 18433 2
69.5146 40.9633 25.2084 18439 2
68.2088 43.222 26.1302 19396 1
70.4907 43.862 25.6248 19389 1
72.425 40.0677 24.7234 18443 1
71.8291 41.6052 26.3728 20353 1
74.4959 41.5277 26.1245 20361 2
72.1227 42.9719 23.7442 19401 2
73.1963 44.1937 26.2278 2141 1
21.1273 44.6631 26.5535 63528 2
18.4596 44.7332 25.4344 63282 2
18.7661 47.205 26.7424 63280 1
21.6271 47.2972 25.5046 53468 2
21.8136 44.6727 23.5359 48570 2
19.2096 46.8204 23.5985 63525 2
24.2781 45.7083 24.8698 63650 2
24.1796 48.1142 26.4276 2088 1
25.1643 48.538 23.8882 41060 2
26.0917 46.2508 27.6133 2044 2
27.3812 46.7863 25.0669 41064 2
29.7139 45.5023 25.1732 2049 1
30.1946 48.5076 25.5725 41946 2
28.8648 47.1979 27.1918 1131 1
31.104 46.108 27.2331 2046 1
32.7201 46.4747 24.9282 2157 2
32.3006 48.2052 27.2247 2922 1
34.7658 48.1819 26.032 2095 2
35.144 45.2493 26.5009 3952 1
33.3648 45.9359 27.713 2979 1
35.026 44.6582 23.4649 41070 2
39.1486 45.9963 24.5241 41124 2
36.5181 46.2338 24.7935 41990 1
37.4832 46.9132 26.9741 2159 2
39.2496 44.5917 27.2642 2156 1
37.1694 48.3929 24.2521 2155 1
41.0968 44.5926 25.9682 1249 1
41.7978 47.1881 24.6987 1293 2
40.3759 46.8269 27.1235 1292 1
43.3099 45.8759 26.3595 2162 1
44.2414 45.0321 24.3316 1257 1
44.6391 47.9871 24.9385 2169 2
46.0975 45.6733 26.0209 381 1
45.8552 47.5084 27.4531 21219 1
48.0699 46.8405 25.8403 385 1
48.1527 48.4199 27.3752 2214 1
49.6353 44.8166 25.0449 340 2
52.1101 45.0674 23.9 2120 1
51.8768 46.8221 25.3695 1345 1
52.6973 44.5699 26.7031 25040 2
49.7412 47.5907 23.4971 1305 2
52.8957 48.5956 23.5029 1298 2
55.6635 45.761 26.5211 1306 2
54.2053 46.1925 24.3653 1264 1
54.1939 48.3592 26.4183 19428 2
56.0843 48.0004 24.3401 19426 2
58.8168 45.7047 26.8325 1303 2
59.0731 46.7629 24.2133 20346 2
61.6806 46.1035 24.8073 20338 2
61.6648 46.8985 27.6587 259 1
57.3741 48.4696 27.0777 21280 2
63.6602 46.0338 27.1196 20304 1
64.7719 46.5379 24.4351 19386 2
62.6976 48.4294 23.7686 1274 1
66.0968 44.7757 26.8435 21284 2
66.2375 47.4854 26.2337 25875 1
68.4259 45.8474 25.295 21192 2
69.4471 48.1106 27.1429 19439 2
70.0123 48.4694 24.0406 18476 2
70.5747 45.5059 23.6319 19395 1
67.095 47.5264 23.66 19434 1
71.4226 46.3599 25.8986 19436 2
73.2078 45.5614 24.1187 18542 1
73.2917 48.3854 24.5753 19445 2
74.6229 48.6878 27.6216 25005 2
74.9534 46.3517 25.896 20313 2
19.4293 49.4882 25.2656 63274 2
18.3722 52.1916 25.2785 54461 1
20.4893 52.0306 24.0613 63632 2
21.8484 50.0127 27.2124 48858 2
18.552 50.5861 27.6452 63275 2
20.4212 52.9138 27.1653 63060 2
24.307 50.3819 27.0475 63527 1
22.5363 49.8363 24.3781 48669 2
25.4084 51.4798 24.8234 2085 2
22.6924 51.9581 25.7996 63486 1
28.1369 52.2509 23.483 50477 1
26.7328 49.2819 26.888 63281 2
27.795 49.2516 24.1238 41062 1
28.604 51.1961 25.8851 24951 2
30.5305 52.4431 24.3236 2040 1
34.933 50.2509 23.6463 41077 2
32.5176 49.7379 25.4044 41115 1
31.0739 51.422 26.4986 40237 1
34.6512 51.0029 26.3976 41120 1
33.1126 52.5274 24.8443 2048 2
37.0168 52.0812 25.2103 378 2
36.9129 49.7692 26.2352 63642 1
38.5799 51.0468 27.3474 1336 1
39.4983 49.006 25.8764 1294 2
41.9251 52.7294 23.6481 431 2
40.5732 51.9961 26.022 1339 2
42.5613 49.874 26.4603 2200 2
43.707 52.9262 26.3441 1388 2
47.4127 49.0854 24.6446 41079 2
44.5046 50.9702 24.0427 383 2
45.5701 50.2051 26.7841 1295 2
46.7373 52.034 25.3673 2240 1
48.2441 50.9689 26.7322 394 1
50.4468 48.8124 26.1571 2213 2
49.2812 51.4117 24.6095 3092 2
52.619 50.7597 25.1928 25001 2
50.6495 51.7824 27.5794 4065 2
55.8222 50.9625 25.2631 1268 2
53.5524 52.7314 27.3665 25885 2
60.5393 48.8298 26.1744 2172 2
58.2228 51.3003 26.7914 1310 1
58.3246 49.6187 24.8229 19470 1
59.8586 51.703 25.2375 3150 1
63.6173 48.7622 26.4113 18534 2
62.406 51.2365 24.9357 19483 2
64.6932 51.3216 26.1569 20397 1
64.7651 52.465 23.8073 18526 1
65.2069 49.4499 24.0257 20344 2
67.9274 49.1455 25.26 25042 1
67.1953 51.8456 25.1534 19482 2
70.2734 51.5869 24.9384 19488 2
69.07 50.5707 27.1632 1224 1
66.5405 49.7752 27.5622 20351 2
71.811 49.6089 26.7617 2268 2
73.1193 51.6268 24.7463 19532 2
73.6957 51.6917 27.4027 20447 1
17.7413 56.6504 27.2225 50587 1
19.1676 55.0929 25.2411 63500 2
22.0144 54.6175 24.8958 63481 2
20.8861 57.2976 26.0164 48680 2
24.3967 53.7583 25.773 63235 1
24.0982 56.5748 24.7346 63634 2
22.3816 55.0402 27.2991 63046 1
25.4692 55.5543 27.6364 63188 2
23.4905 57.2607 27.2348 63485 1
27.0225 57.0151 25.1459 63479 2
27.5113 53.9686 25.8493 2089 2
29.7666 56.7162 25.3393 3022 1
30.2352 54.3849 26.5026 40239 2
29.0415 54.8138 23.563 40191 2
31.9709 55.3 23.7406 42703 2
33.1401 55.2543 26.3607 41977 1
34.9184 54.8496 24.3115 41126 2
31.4847 57.3084 27.2069 2982 2
35.332 53.6674 27.1784 41170 2
37.2055 54.9187 25.5417 477 1
36.1084 56.9592 27.4949 376 2
39.2621 53.8098 24.617 25067 1
39.1532 56.5603 26.3404 3191 2
43.5687 55.0898 24.164 435 2
41.3921 54.8197 25.685 19545 1
43.5255 55.8468 27.396 2289 2
42.0559 57.1145 25.3496 481 1
41.2876 53.9025 27.6826 2201 1
45.7779 54.3587 25.2126 1386 1
47.8639 56.1966 24.0793 1348 2
46.3321 55.9318 26.9463 1347 1
48.4499 54.0498 26.4757 1297 2
47.9024 53.5563 23.6744 438 1
45.0677 57.1543 25.0404 1390 2
49.9735 56.9556 26.0872 20463 2
51.0345 53.3858 25.3079 19565 1
52.2181 55.5177 25.7243 1399 1
50.8196 54.4943 27.5397 1394 1
55.3255 54.6468 26.1662 19469 1
54.3815 56.4559 24.4061 20435 2
53.3759 53.6504 24.7992 1352 1
57.0138 55.7636 24.678 19517 1
55.5685 56.7781 27.1939 19657 1
55.6373 53.5815 23.8893 19473 1
57.437 53.1726 25.4576 1267 1
59.408 53.3759 27.2043 19379 1
59.9542 54.6676 24.8212 20390 2
58.1818 55.8903 27.2403 25887 2
61.0593 56.9218 26.0539 25865 1
59.1462 57.1209 24.774 18630 1
62.2952 53.7998 26.6904 19476 2
65.1139 53.8739 26.6408 19486 2
63.8632 56.4989 25.6673 19570 2
62.8119 54.2137 23.8693 18633 2
65.8439 54.8527 23.8336 19581 2
67.5726 54.8991 25.8127 19585 1
70.1584 54.3971 26.3374 19524 2
69.0185 56.5208 23.9306 19586 2
68.76 57.0453 27.1899 19626 2
68.5265 53.8719 24.0265 19523 1
72.8369 53.6802 26.5786 20402 1
73.5286 56.1496 24.8978 20444 2
71.0105 57.1526 25.684 20488 1
74.4167 55.419 27.3418 20446 1
71.6535 54.1647 23.6888 19489 2
18.0767 58.0601 25.0438 63187 2
21.6606 59.6286 24.7596 63438 1
19.593 60.0225 26.2945 63040 1
19.1059 60.6624 23.8467 53700 2
21.9561 59.7902 27.2876 63183 2
24.4956 59.5213 25.6094 63433 2
23.236 61.6251 23.8215 63598 1
26.5851 60.8704 26.7421 63042 1
29.1467 59.2472 26.285 63272 2
27.0406 59.8853 24.5767 63410 1
29.2544 60.1579 23.6967 53557 1
34.1849 57.5655 25.2856 428 2
30.9191 61.1313 27.2648 3012 1
31.3927 58.3066 24.3765 25023 2
32.8375 59.5743 26.9891 24941 1
31.7451 61.0633 24.7331 1382 2
34.945 60.5276 25.0327 24999 2
37.0293 57.5307 24.0901 1338 2
37.685 59.3369 26.5809 1385 2
37.3121 60.2305 24.0653 426 1
39.7602 58.9658 24.4373 429 2
40.9719 58.6369 27.0162 2333 1
41.8119 60.5039 25.7449 19607 1
43.3026 58.795 26.471 1387 1
42.7725 59.3255 23.6936 479 2
47.4843 57.8269 26.2332 1393 1
45.5844 60.1672 25.7647 1445 2
48.1958 59.6536 27.5466 2294 1
48.2019 61.7788 26.3388 1444 1
44.329 61.6131 23.6168 483 1
48.3396 59.4362 24.251 1447 2
51.7559 57.7722 24.4508 491 1
50.6785 60.0672 25.9533 19569 2
52.3829 61.8192 24.3966 2342 1
53.0136 58.0869 26.9273 1398 2
56.225 58.8629 25.9573 448 2
53.7673 60.5093 26.1497 24996 1
53.874 59.4147 23.8289 20473 2
57.5826 61.1637 24.8709 19618 2
59.228 58.8185 26.6965 444 2
60.8403 60.8133 25.9161 20476 1
59.7105 59.4111 23.6157 19575 2
62.1798 58.9246 25.2512 19572 1
64.5667 59.0624 26.0463 19520 1
63.3653 61.4063 24.4217 19580 2
63.0613 61.0664 27.4445 19623 2
66.7792 57.5938 25.2943 1420 2
69.3722 59.6006 25.0744 20487 2
67.5066 59.6052 26.813 20483 1
66.4276 60.8296 24.6437 546 2
74.2538 60.9909 26.5082 20497 2
72.2281 59.349 24.7002 20485 2
73.5609 58.1117 27.256 20489 2
71.5351 61.4019 26.3187 21396 1
71.0523 61.5882 23.6272 19632 1
70.8946 59.2616 27.6658 20537 2
17.9177 62.2616 26.2457 55544 2
21.2695 62.3974 25.6085 63425 2
20.8711 65.3316 24.9367 54635 2
18.0839 65.121 25.8298 55588 1
19.0805 63.3872 23.8865 53783 1
24.3604 62.4656 26.2007 54632 2
23.8538 64.5858 23.9574 63600 2
25.6982 65.7548 26.3545 63028 2
22.6244 64.7331 26.749 48872 1
26.7626 64.0515 24.6719 63474 1
28.5841 62.1493 25.3267 63227 2
28.9058 65.1626 23.9854 5799 2
28.7973 64.8723 26.9712 63176 2
26.6755 63.359 27.0404 63043 1
31.2309 63.7775 25.6636 24954 2
33.8071 62.4937 27.0372 3025 2
34.1065 63.7017 24.4202 19499 2
33.1096 65.2024 26.5385 2284 1
36.512 62.0578 26.6272 20458 1
39.2147 61.9416 25.3923 24937 2
36.7373 62.8861 23.9293 2288 2
38.6383 65.2365 24.9581 2328 2
35.8575 64.7485 26.3381 3184 2
38.5756 63.776 27.4967 1384 2
41.9243 61.9823 23.962 25906 1
40.6637 63.9165 23.744 2286 1
41.6127 63.4761 26.4474 1439 2
40.5935 65.7195 27.5737 2331 1
41.4823 65.8191 25.098 572 1
44.0654 65.3907 25.6088 1442 2
44.1007 62.7095 25.5656 1391 1
47.0041 61.9142 24.0201 1395 1
46.5388 63.7996 26.1949 1443 2
45.5901 63.7515 23.6297 19616 1
46.2918 65.8838 24.2037 525 1
48.7879 65.9428 24.792 1446 2
49.8549 62.7804 24.2193 19660 2
49.5306 63.8938 26.5588 25036 1
52.1256 65.6509 25.2642 2381 2
52.2197 62.6971 26.9178 19617 2
55.4299 61.8985 26.4193 25862 1
54.428 64.1718 25.0656 19665 1
56.213 63.9578 27.1158 20518 1
54.7296 62.0363 24.0115 18770 1
57.2753 64.041 24.6716 20521 2
53.9288 65.0356 27.5727 1490 1
60.2918 65.3747 25.136 19670 2
58.0079 65.7689 26.9155 20522 1
59.3444 62.8273 26.5685 20525 2
60.4147 62.5627 23.807 18729 2
61.9484 63.0924 26.3418 25860 1
64.7398 63.237 25.8853 19625 1
62.9291 64.1344 24.1333 1455 1
65.1672 65.4596 24.4398 2354 1
63.3065 65.2318 26.2217 19624 1
66.2878 65.3719 26.9346 21433 2
67.1544 63.9428 24.3158 602 1
67.2789 62.7994 26.4029 20533 1
69.6189 63.2239 25.2628 20527 2
68.7335 66.2092 25.3192 18736 2
74.7468 65.2171 25.7069 22590 1
72.8575 63.2946 24.7722 19679 2
71.9373 65.9253 26.237 21693 2
70.9954 65.5393 23.8703 1461 1
71.2914 63.7427 27.4329 19639 1
18.9579 67.3779 25.3857 54678 1
19.1933 70.207 23.779 54856 2
21.4101 68.2979 24.792 63142 1
20.9296 67.3483 27.3256 63177 2
19.8447 70.5603 26.6368 54810 2
18.4036 67.0535 27.6263 50692 1
26.2926 67.0161 23.6316 63411 2
23.401 66.9382 25.3662 63141 1
23.1147 69.524 26.7955 54677 2
25.3908 68.2824 25.9358 63140 1
23.9374 69.484 23.8603 48693 2
28.0467 67.6566 26.4209 63144 2
27.2508 69.4032 24.4003 55682 1
30.0393 70.1471 25.699 63139 2
29.2881 67.7243 24.0439 1383 1
34.0488 66.6259 24.5508 24853 1
31.2344 67.0746 26.0376 63037 2
34.0385 68.8381 25.289 48819 1
32.5945 69.7315 27.3039 4408 2
34.0602 67.3066 27.6538 5806 2
31.9439 68.6439 23.652 63014 2
35.496 69.8903 27.0849 3598 1
38.1865 66.4645 27.4105 2332 1
36.4951 67.4942 25.6301 2373 2
37.8585 70.0557 24.9768 4204 2
38.9854 69.9695 27.485 2419 1
43.6603 67.7018 23.5661 527 2
42.5118 70.1308 23.7364 582 1
40.0358 67.9514 25.9045 1482 2
42.9368 69.0774 25.8626 579 1
42.809 67.2874 27.5647 2420 2
40.8949 68.5413 23.499 526 1
45.8627 67.7779 26.0044 578 2
47.9335 66.2509 27.5595 19614 2
47.021 70.4253 25.2999 3300 1
44.7556 69.972 24.811 530 1
44.622 70.3443 27.679 1483 2
48.7115 68.5808 25.371 1528 1
50.3102 67.3699 26.5641 2338 1
51.2819 69.2374 24.6418 1488 2
52.5799 67.7719 26.655 2427 1
48.9861 70.3325 23.6228 1535 1
50.7314 69.6558 27.6767 24995 2
55.3006 66.8076 26.0653 2430 2
54.1614 69.9314 26.9105 1533 2
56.169 69.4239 25.2425 2425 1
53.9131 68.562 23.7844 19710 2
60.9078 68.843 24.7299 19718 2
59.5138 67.4533 27.2568 20569 1
58.7876 69.837 26.511 25855 1
58.0883 67.6322 24.8347 25882 2
62.1118 67.3646 26.5315 20571 1
62.7617 66.7023 23.9203 18779 2
64.6832 67.7689 25.8266 20529 2
63.1543 69.6516 26.9611 21735 1
63.2658 70.605 24.9009 25856 1
66.5855 68.2256 23.5608 21739 2
70.2855 68.4281 26.0374 25816 1
69.1912 69.2639 24.2273 18741 1
67.5981 68.4853 26.6187 22589 2
73.3976 68.8305 25.2678 2592 2
71.483 70.3064 24.4852 21785 1
71.2346 67.8568 23.8939 2396 1
71.9432 68.1251 27.682 25853 1
74.4425 66.8595 27.7006 22592 2
73.7006 66.2885 23.5493 43679 2
19.1352 73.571 27.0582 54859 2
21.8933 73.8867 25.3978 63116 2
18.8642 74.2472 24.1944 63363 2
21.9533 71.0393 24.8077 63128 1
17.7309 71.9647 25.0114 63105 1
25.7559 70.7845 25.7672 63124 1
23.7366 72.1199 26.1584 63010 1
24.668 72.5511 23.7321 63118 2
25.8997 72.9956 26.303 48908 1
24.1904 74.6459 27.6917 4505 2
26.6239 74.3776 24.0289 3538 1
28.4228 73.4518 26.6461 4507 1
27.9775 71.98 24.3819 63125 2
30.526 72.0409 27.699 3543 2
28.8018 74.6648 24.1214 24854 1
30.8007 73.1416 25.0367 3587 2
34.7961 71.0593 25.0336 21775 1
32.5023 70.9668 25.0465 4458 1
33.3458 72.694 26.8204 3599 2
33.3981 73.0582 23.9837 4512 1
38.6387 73.1305 24.6253 22511 2
36.4881 72.0843 26.3978 3597 1
39.2164 72.9617 27.3487 4520 2
35.7693 74.1032 24.8784 3602 2
42.9626 72.7586 23.6731 577 2
40.8492 70.9886 25.6328 2374 2
42.5512 72.6534 27.276 1532 2
40.9631 73.8901 25.4771 19699 1
45.2902 74.6538 26.9622 21842 1
45.1254 72.5525 25.4951 1487 2
48.2132 74.5639 25.9855 1531 2
47.2535 72.2972 23.4972 633 2
49.4862 71.6296 25.98 2426 2
52.4213 71.3599 25.4658 2431 1
51.3629 73.3999 26.452 21736 1
53.0218 74.1274 24.0922 22631 2
54.9051 71.7468 24.2212 25821 2
55.5142 73.949 26.0063 21729 1
56.7821 71.6667 26.589 21476 2
53.7499 72.7818 26.6925 21526 1
55.6149 74.9842 23.9214 12850 1
57.3566 73.297 24.2958 2432 1
58.5335 71.0406 24.1778 19667 2
58.5428 74.3684 26.3892 20618 2
60.8771 71.8468 25.7477 20619 2
60.3689 74.0691 23.9018 21788 2
61.7745 74.9781 26.8423 21776 2
65.8 70.6553 25.5633 20824 2
63.8011 73.2325 25.2946 22588 2
70.0234 72.4475 23.6888 22688 2
68.7073 71.2815 26.2246 21737 2
66.829 73.4623 24.4795 21781 2
69.3615 74.8423 26.0856 21787 2
66.8827 73.5637 27.5755 22638 2
67.4078 70.7679 23.5752 21740 1
71.5494 70.7987 27.1342 22642 2
71.5676 73.6068 26.5417 25817 1
73.1882 72.4995 24.7673 20834 2
73.9728 72.2373 27.6776 21791 2
19.3838 19.9206 27.9569 1881 2
20.948 19.2369 30.6175 2716 2
21.9472 21.2249 28.9847 25064 1
19.2858 21.7787 30.848 20051 2
17.847 19.2615 30.4032 59349 2
23.6519 18.3347 30.6329 2718 1
26.0359 18.4502 29.4136 784 2
23.0877 18.9904 27.8681 20009 2
24.6678 21.364 29.3247 24990 2
23.8236 20.5464 31.7397 3701 2
26.7174 21.0392 30.9477 2772 1
27.8061 21.4848 28.1015 2717 2
28.9088 19.4177 30.2447 1847 2
30.7555 21.6452 29.9702 936 1
28.6538 22.3116 30.6028 2776 1
33.7829 18.276 30.0119 22538 2
33.934 20.4421 27.776 2726 1
31.2268 19.5961 28.3191 1891 2
33.3651 21.1758 29.9819 987 1
31.5735 20.1817 31.8828 3653 2
35.9222 19.0341 28.0073 20120 1
36.7819 18.1973 30.3025 3659 1
38.6488 19.2224 28.6679 21910 2
39.6152 21.7906 28.2562 3657 1
36.1252 21.0117 30.0041 1900 2
38.4179 19.3958 31.9496 3663 2
39.3692 21.6042 30.7568 3662 2
41.8468 20.3641 29.0332 22582 2
41.697 20.5974 31.7823 25771 1
40.9449 18.1765 31.1086 22535 2
44.6796 20.4963 29.8614 12875 1
47.9041 20.2631 29.8476 23264 2
45.8573 21.7664 31.8456 2791 2
44.1317 19.1458 31.9991 3667 2
50.368 21.6026 29.7828 21895 1
49.9635 19.7931 31.9766 22528 1
51.4578 18.8446 29.8768 3670 2
48.7185 22.4275 31.9831 2736 2
53.0092 21.5605 29.629 2785 2
55.8527 20.9552 28.5474 23127 1
55.6273 20.2427 31.0795 22564 2
54.2946 18.5153 28.7074 22533 2
54.3545 22.4023 31.8969 2851 1
53.193 20.0233 31.8797 21898 1
57.5139 18.6995 28.265 11602 2
58.1151 21.2986 29.2583 23632 1
58.2883 19.2822 31.3348 21893 2
59.8531 19.5898 29.1791 20993 1
60.6221 21.6687 30.5922 20141 2
61.5951 18.2318 30.9996 22527 2
62.3247 20.7453 28.0458 38322 2
63.6433 18.5492 29.2176 12512 1
64.9826 20.4179 28.579 12897 1
63.5641 20.66 30.9534 25850 2
65.6489 18.8019 31.9488 31025 1
67.2185 20.5429 27.8835 20998 1
66.6591 21.185 30.4865 11550 2
69.013 19.3645 29.6194 30802 2
70.4936 20.5886 31.4709 1659 1
66.5034 18.0832 29.6039 12539 2
71.9996 20.1728 29.1259 22613 2
74.8049 21.4453 29.8491 30808 2
72.6587 19.8164 31.5474 12506 1
74.3095 18.3311 30.0274 12895 2
20.5031 26.0998 27.7456 1885 2
20.0413 22.5461 28.2396 1887 1
19.7917 24.3714 29.7848 1930 1
21.7332 25.5713 29.9948 2818 1
17.7712 24.8496 27.8997 1883 2
22.0332 22.9772 30.945 1841 2
22.8625 23.7819 28.0867 1886 2
24.917 25.576 28.9919 976 2
25.2135 23.4258 31.4212 2770 2
26.6144 25.8612 31.1214 21001 1
30.0314 23.3381 28.1587 1944 2
28.8397 24.6654 30.2505 2771 1
26.7813 23.5096 29.5746 24989 1
28.852 26.5829 31.6247 2764 1
34.7457 23.1431 27.8352 25027 2
32.5401 23.7354 29.7473 2775 2
30.8807 26.0312 29.6906 1946 2
33.5815 25.6646 31.6967 2825 2
34.5979 25.984 28.7754 25028 2
35.1142 23.6968 30.4765 2778 1
37.7951 23.7902 29.1168 25025 2
37.2371 23.3231 31.5316 5526 1
36.6049 26.0567 31.0026 2828 2
37.1716 26.6312 28.5804 1951 1
41.779 22.6155 27.7317 3665 1
43.4721 22.8163 30.1833 2784 2
40.6936 24.1502 29.5908 23152 2
42.7763 26.0339 29.6411 3759 2
41.5456 22.9664 31.9891 3717 1
39.9613 26.6395 27.9182 1958 2
46.1531 22.5516 28.6086 4627 2
45.0863 24.9087 29.2966 21900 1
46.7862 24.2044 30.757 3720 1
45.8718 26.3094 31.3082 2839 1
48.4021 25.7217 31.2234 4629 1
47.3835 26.7793 28.9398 2786 2
52.2021 24.5271 28.4223 2024 2
48.9726 23.8705 28.946 750 2
50.8512 24.3707 31.077 710 1
50.1456 26.7914 29.1549 1107 2
53.0736 24.0959 30.817 21056 1
54.1091 26.1834 29.3568 42770 1
56.8287 26.684 29.3084 40027 2
55.6793 23.6365 29.9489 30857 2
55.0318 25.8945 31.8664 1056 2
57.87 22.4701 31.2532 12459 1
57.6459 25.0356 31.4104 2028 1
58.9321 24.2711 29.1996 20098 2
61.7148 23.452 28.9444 20104 1
61.4859 25.2232 30.3984 20201 1
61.7763 26.229 27.8397 713 2
62.7505 23.2395 31.0084 20096 1
64.2916 22.9375 28.9942 20100 2
64.2777 25.9171 30.4213 19684 2
67.4517 23.6491 27.9445 31002 2
69.3021 22.9033 30.3179 12867 2
66.5794 24.3666 30.2996 12414 1
70.0667 25.6273 29.3625 19196 2
67.158 26.734 28.9104 25879 2
72.0328 22.5628 31.0883 11516 1
72.4117 25.859 27.9763 19299 1
71.0526 25.0568 31.8007 20160 1
71.7546 23.1987 28.3446 22672 2
74.4296 23.6961 28.4252 20157 1
73.4235 24.8515 30.4792 1651 2
17.7438 30.1998 28.1882 1936 2
18.403 27.0194 30.0834 2763 2
20.4229 29.209 28.0253 63546 2
18.9119 29.7518 30.5968 1982 1
21.3449 28.1243 30.7429 2859 2
23.3649 30.0812 28.6404 1018 2
22.7715 27.3511 28.6291 1929 1
24.5213 28.1061 30.7668 1941 2
24.9 30.7891 30.6121 1986 1
26.2382 29.5681 29.0771 25059 1
29.9826 27.905 27.949 1949 1
28.7559 30.4255 27.9427 1947 2
27.7435 27.5402 29.4066 2769 2
28.0178 30.4724 31.0455 2817 2
30.6833 28.8771 30.2943 2864 2
31.4743 30.2413 27.7439 2872 1
33.2459 27.8103 30.0639 24984 1
33.3851 30.6701 29.9041 1993 2
35.0868 28.788 28.7587 24982 1
36.2381 30.8579 28.0618 4713 1
35.6776 29.0672 31.3983 3752 2
37.9252 29.108 28.993 2831 2
38.7448 29.3002 31.475 2862 1
39.6988 26.8772 30.7033 4664 2
40.4067 29.5948 29.676 2873 1
42.5105 28.4909 28.5745 2069 2
41.7044 28.7597 31.8146 2879 2
43.9352 29.8335 30.5807 2789 1
43.7751 27.1245 31.9718 2941 1
43.8321 30.9635 28.278 3713 1
45.806 29.2984 27.8768 41849 2
44.8453 27.7068 29.6917 2006 1