ITEM: TIMESTEP    
45000     
ITEM: NUMBER OF ATOMS  
77888     
ITEM: BOX BOUNDS pp pp pp
17.607 132.393    
18.0782 131.922    
20.2782 129.722    
ITEM: ATOMS x y z id type
20.5185 18.3757 23.0667 1839 2
19.1019 20.8525 21.8583 72779 2
21.4182 21.344 23.8852 977 2
18.8115 21.115 24.6352 20053 1
17.6368 18.0271 64.793 62215 1
71.1268 72.0063 74.4585 26052 1
22.2899 20.9557 21.0576 72830 2
23.2313 19.2768 23.4042 23170 1
25.6284 19.6393 24.238 22628 1
24.9994 20.8769 22.3965 72824 1
24.0019 21.6211 24.5154 1848 1
54.2833 74.9856 73.1452 17091 1
27.033 22.1532 23.7434 1846 2
29.8017 20.7423 23.6764 20062 2
30.2108 21.6059 20.9814 2719 1
27.4896 19.4048 21.9921 22548 2
27.9126 22.1405 20.6603 978 1
32.289 19.8932 21.6865 24988 2
32.4154 21.4877 24.3153 43709 1
34.779 20.4631 22.9142 1851 2
32.9055 18.6447 24.9771 23637 2
37.1377 20.7716 20.9046 22537 2
37.2831 21.8861 24.1077 1899 2
39.0928 19.0765 21.1616 1904 1
37.1128 18.4758 22.9079 22536 2
39.9442 20.46 23.1842 1854 2
42.063 22.2041 21.6665 40934 2
42.7859 19.2831 23.5046 23128 2
41.9176 21.8818 24.3326 3665 1
41.6671 18.4354 20.5509 23153 2
44.2515 20.1777 21.384 1099 2
47.135 20.783 21.5898 40834 2
45.7509 19.6981 24.3233 22576 2
47.6551 21.8504 24.0598 1908 1
49.8506 21.624 20.8423 40893 1
49.3171 19.7198 23.2294 22529 2
52.5206 21.0795 20.8348 38365 2
52.0712 19.1535 22.9863 22574 1
50.1513 18.886 20.4851 38521 2
51.1204 21.8968 23.4724 1110 2
54.4914 21.4707 22.8304 23176 2
56.8673 19.4533 23.0149 13500 1
55.8908 18.4233 21.1634 21944 1
54.4876 18.7934 23.4611 12513 1
60.9763 21.0129 21.3753 31298 2
59.9803 18.6108 23.0044 19184 2
59.2725 21.2715 24.3165 31285 2
58.2429 19.8624 20.6193 38509 2
64.3478 21.1109 21.8467 21892 2
62.7483 19.0238 21.8149 31021 1
62.5731 20.2046 24.4111 38322 2
64.9835 18.3601 23.5503 30999 2
66.5799 20.5384 23.5627 20998 1
67.3568 19.7835 21.1891 31023 2
69.1164 21.2417 23.4876 19245 2
67.0633 22.2966 21.6652 31293 1
75.0376 23.8577 71.1845 27552 1
70.6805 19.8961 21.7845 30996 2
72.7606 18.3826 22.957 21403 2
72.9425 21.711 22.912 12413 2
74.3975 19.5985 20.9113 31289 2
20.9759 24.1312 22.8235 25062 1
19.7632 25.4469 21.206 970 1
18.263 23.5097 22.9255 1928 2
19.6683 26.0775 24.4448 1883 2
22.1412 25.5812 21.0436 52493 1
22.7342 25.9987 23.3772 1888 1
23.6573 23.5505 22.7313 25024 2
25.6376 22.8487 20.9963 926 1
24.897 26.3822 21.4069 25061 2
25.2358 26.4251 24.4984 1025 2
26.5008 24.5753 22.7394 1945 1
29.2627 23.1791 22.382 1895 1
30.5057 25.7323 22.3333 40920 2
28.5818 25.0227 24.5068 1944 2
30.9025 23.4064 24.0996 25026 1
27.7523 24.9335 20.4509 1943 2
32.324 25.249 24.271 25060 1
32.4064 22.9055 21.8863 989 2
33.9073 26.0385 22.0367 1035 2
34.4711 23.961 24.1469 25027 2
39.4192 22.458 21.2117 2790 1
35.7056 23.2251 21.527 40928 2
37.1558 25.3863 23.0687 2729 2
39.7742 26.2927 22.3285 2836 1
39.8523 23.7308 23.3703 3770 2
41.4372 24.9478 21.4658 1956 1
42.7689 24.3544 23.4755 2782 1
43.8075 24.4758 21.303 41801 1
43.0993 26.7397 20.735 1897 1
39.4832 26.5668 25.1025 1958 2
44.989 22.7458 23.0504 43705 2
45.7538 26.0445 21.9792 40939 2
46.7838 24.3424 24.0889 1153 1
48.8522 23.69 22.2153 40989 2
49.2271 26.303 20.6107 23205 2
50.9486 25.7834 23.5717 2020 2
51.5824 24.1062 20.7027 19180 2
52.88 23.6803 22.9504 23642 1
52.2329 26.9598 21.0783 1165 2
56.7874 22.4377 24.5269 23172 1
56.9883 25.1796 23.307 18330 2
54.84 23.8139 24.205 40030 1
54.6359 24.2015 21.0396 40025 2
53.9505 26.2989 23.4045 20144 2
57.1365 24.7143 20.3782 18326 1
57.41 22.4687 21.9968 38629 2
59.4903 23.8065 23.6657 20148 1
58.7857 26.4996 20.8852 19227 1
59.5068 26.0316 23.0334 246 1
59.8434 23.8107 20.9549 199 2
61.6889 25.9412 21.6549 19229 2
62.1693 23.1662 22.9858 19285 2
64.2197 25.546 23.408 20106 2
64.7713 23.6847 21.4593 18327 1
55.0354 64.7295 20.4687 583 2
66.5715 23.2677 24.0423 31002 2
69.4814 24.0394 22.7084 1065 2
67.3447 25.6645 23.2896 19241 1
67.3127 24.5759 20.5014 31294 2
71.8796 23.3647 21.0523 12457 1
71.6326 25.8224 21.8768 30290 1
73.5329 24.3028 22.517 43162 1
71.448 25.7738 24.2445 19299 1
71.2613 23.1665 25.2417 22672 2
23.1297 74.9086 73.6405 28826 2
20.6973 27.8829 22.4757 1933 2
18.3054 29.8335 22.565 63536 2
20.6135 30.3222 24.5442 63546 2
20.1408 30.1137 20.7092 72807 1
22.2842 30.8939 21.9941 1071 2
23.4519 28.399 23.1762 63545 1
25.4921 29.5376 21.536 1023 2
25.7115 29.0172 24.2391 40916 1
23.6991 30.8121 24.6537 1018 2
27.6807 27.6492 22.7845 39954 2
30.2727 28.6272 21.8766 983 1
28.4828 30.4229 22.3913 40965 1
29.9949 30.5291 24.9471 1947 2
29.645 27.7335 24.6402 1949 1
28.4224 29.2243 20.4328 19240 1
32.0741 28.032 23.8581 41845 2
33.0935 29.1425 21.181 41885 2
33.6443 30.4787 23.5331 1033 1
35.4184 28.3172 23.4668 40926 2
37.3516 30.0809 24.0035 2010 1
37.6215 29.6361 21.6697 2000 1
38.1909 27.9906 23.2783 1083 1
37.8662 27.2027 20.9694 2779 1
42.0953 27.0398 23.6368 41842 2
40.2857 29.004 21.8122 1907 2
43.2304 29.616 20.9789 2001 2
43.225 30.3192 24.0298 43703 2
40.0788 29.7667 24.6601 40975 2
41.406 31.2807 22.2477 42701 1
47.9118 26.8368 24.0827 40935 2
44.3567 27.9719 22.8474 40985 1
45.979 30.2483 22.3104 41032 2
47.5291 28.28 21.9422 41894 1
48.1183 29.7859 23.8916 1954 1
50.0892 28.2739 22.1385 42717 1
50.4784 30.385 23.5667 42715 1
52.0499 28.5514 23.7261 40996 1
52.1749 30.4714 21.2502 1163 2
49.0605 30.8922 21.2227 41898 2
50.1285 28.4976 24.984 2026 1
55.7428 27.2073 20.6186 19382 2
54.2927 28.8868 22.2988 1105 1
55.8921 30.4819 20.8459 248 2
55.891 28.7215 24.7604 1973 2
57.6477 28.213 22.662 19231 2
59.2175 30.0619 24.3547 200 2
60.3939 28.7068 21.7242 2792 2
58.5968 30.5326 21.6742 1109 1
60.8933 27.9059 24.1108 19243 1
63.8127 28.3065 21.8888 19242 2
62.5239 30.2431 24.1887 20214 2
64.3545 30.7671 21.0697 18380 1
66.0905 26.5769 21.3921 18337 1
69.06 27.062 21.268 30998 2
69.6701 27.7536 24.3493 19186 2
66.6246 28.3298 23.6037 12515 2
69.057 29.5782 22.5521 43818 1
66.8032 29.5969 20.8227 30833 2
68.1167 30.7429 25.0061 20158 2
74.0013 26.7958 23.6895 1076 2
70.8055 30.5143 24.7803 19294 1
73.8601 30.4227 23.9081 19300 2
74.3287 28.5379 21.3201 43804 1
71.6943 28.6731 22.025 18339 2
73.5231 30.8071 21.3317 19297 1
72.8753 72.841 72.2439 15179 2
19.0755 32.5047 22.4077 1017 2
21.7528 34.1536 21.5871 1060 2
20.0359 34.9727 23.7015 63543 1
18.1174 35.0627 21.8997 1121 1
21.7354 32.768 23.9681 1980 1
75.0526 51.9921 22.3952 18592 1
24.5546 32.8881 22.1132 63681 2
25.4072 35.2929 21.3947 43702 1
24.2087 33.5881 24.9874 1983 1
26.3149 35.0572 24.0095 1075 2
26.6186 31.5509 24.125 20152 2
27.0967 33.5587 21.9733 1070 1
29.0233 32.8935 22.898 1989 1
30.9799 33.4135 24.3542 2916 1
31.305 34.7163 21.8256 1029 2
31.4306 31.4959 22.1916 1940 2
33.8106 33.5816 23.3806 24974 2
33.3546 32.9327 20.7435 984 1
35.5153 31.4447 22.0947 41893 2
38.8075 32.1325 22.7385 1199 2
35.8192 34.5427 21.5184 41937 2
38.6333 34.1907 21.2105 19202 1
38.6796 34.8856 24.2333 20283 2
36.417 33.4866 24.1449 1080 1
40.8579 34.0584 22.3902 2002 1
43.2596 33.002 21.3603 41848 2
41.1429 32.7723 24.5656 2004 2
41.586 35.346 24.7461 2944 1
46.2476 34.9501 21.7969 2067 2
47.5703 32.886 22.9494 237 2
44.5927 33.2103 23.9619 43700 2
49.2598 34.6005 21.9854 41035 1
50.9751 33.0307 23.3896 2022 2
50.6944 33.0668 20.7313 291 1
53.233 35.2442 23.5085 1208 1
53.1967 31.0157 24.0721 1164 2
56.4597 31.601 23.6008 2077 2
54.7507 33.5578 24.3453 249 1
56.0887 34.387 22.3704 19334 1
53.9208 32.9867 21.7089 20251 2
61.1678 31.7882 22.1428 1112 2
58.9969 32.8421 23.5579 19233 1
60.7036 34.3988 22.862 43165 1
57.9518 33.3053 20.9116 241 2
65.3987 31.2289 23.5738 19289 2
63.967 33.6657 21.3875 19232 2
63.1217 33.0241 23.8578 19341 1
65.0053 34.5188 24.0746 19339 1
66.1673 35.0617 21.7998 20215 1
62.6006 35.3982 24.0418 20213 1
66.4275 32.4356 21.1208 19288 1
68.2085 31.7283 22.3763 20162 1
68.8225 34.3162 21.6998 19349 2
69.9814 33.634 24.5507 19295 2
67.0833 33.1946 23.7288 19293 1
71.1008 31.7752 22.3662 19246 2
71.3454 34.6785 22.1854 25899 1
73.475 33.7672 20.7626 43988 2
73.1237 34.7373 24.395 19350 2
60.338 74.7446 57.7717 28041 2
18.0719 38.2709 21.1811 63669 1
19.8879 36.3824 21.597 63542 1
18.4432 37.2598 23.7322 63539 2
21.7792 37.2703 23.2652 1979 2
23.27 36.6176 20.5387 1988 2
23.7948 35.5336 23.1094 1069 1
25.2723 37.8751 22.2744 2036 2
22.9246 39.0782 21.4305 2045 1
23.6719 39.5873 24.1699 2039 1
29.3148 35.6157 23.8871 1074 2
27.9484 36.2908 21.2252 41015 2
30.2786 37.9889 21.391 1028 2
27.9326 38.3124 23.7534 1122 2
33.6328 36.7452 22.2995 2829 2
31.3229 37.4507 23.6317 1079 1
32.6415 39.4759 22.2205 41941 1
33.5745 38.8105 24.8832 20156 2
35.3907 39.0916 22.1758 1998 2
37.8301 36.798 21.9731 41068 2
37.6418 38.6262 24.1023 2061 2
35.6985 36.134 24.3602 1995 2
43.2446 35.7796 22.4413 2990 2
40.2172 39.2496 22.6846 41984 2
40.5775 36.6671 22.5356 40988 1
42.7542 38.3688 20.944 1204 2
42.5521 37.7659 23.9681 2066 1
47.9675 35.5819 23.7148 236 1
44.8227 38.4044 22.9913 41031 1
47.7974 38.3054 23.1736 330 2
45.3296 36.3238 24.5674 2995 2
45.8666 37.6184 20.6097 286 2
51.8542 35.4731 21.0976 1155 2
50.6442 36.4954 23.5417 1162 2
49.9333 39.3201 21.4447 290 1
52.4522 38.6482 22.0853 18473 2
50.5294 39.533 24.2713 2074 2
48.8056 36.8928 20.764 40108 2
55.5783 36.1514 24.0095 19276 1
54.894 36.5681 21.4005 20297 2
55.0444 38.5207 23.3966 388 1
57.6125 38.5433 22.4667 18430 2
59.4686 36.2141 21.1501 1119 1
58.1452 35.6407 23.2699 2121 2
60.9045 37.6472 23.3265 19286 2
59.0371 37.9872 24.8906 18376 1
62.4266 35.8271 21.7143 19236 1
64.4968 37.053 23.3001 19281 2
65.317 39.4173 21.4112 18433 2
62.7116 38.2758 21.2525 44031 1
67.7699 35.8887 24.2722 19291 2
66.9708 38.3182 23.4672 163 1
70.2254 37.0908 22.6842 18437 2
68.4862 39.4566 21.4047 18439 2
69.3958 39.1474 24.1693 19340 1
67.5585 36.9831 21.4633 19290 1
71.1799 39.9236 22.7749 20353 1
73.1055 37.6316 23.2118 19352 2
71.7015 38.8428 20.7801 18443 1
72.5237 36.6059 20.9479 18386 1
74.1996 38.3822 20.6096 18489 1
20.0431 39.9704 22.5401 63537 2
18.2821 42.1994 22.6937 63648 1
20.8225 43.0282 23.3806 63528 2
19.8512 41.9055 20.7235 63678 1
21.7029 40.8864 24.8906 63529 1
18.3574 43.7294 20.311 63651 1
22.6869 41.165 22.6658 21093 1
25.2085 40.9598 21.3695 41066 2
23.6134 43.6933 22.008 63650 2
26.1097 40.5238 24.1799 2037 2
26.2104 42.8301 22.8704 2969 1
23.9641 42.548 24.8849 63091 2
30.2042 40.2201 23.5613 25055 2
28.3431 41.7864 21.5202 43701 2
28.1005 44.2568 22.7139 2049 1
17.7997 61.3623 24.0552 55544 2
74.9882 37.7661 27.2557 20311 1
31.0921 43.0718 22.5819 2090 2
33.9234 41.9796 21.8062 2051 2
32.6268 41.3276 24.3401 1994 1
33.8217 43.4667 24.3252 41940 1
50.4334 18.3063 49.805 7697 2
37.5197 40.89 21.0251 41072 2
38.4366 41.2572 23.2635 1202 1
35.6931 41.255 24.3719 2053 2
36.4955 43.775 22.8632 41939 2
39.7992 42.8945 21.4735 3133 2
43.1882 40.3162 23.3889 25047 1
41.972 41.3124 21.5114 1200 1
43.4437 43.1803 22.729 1251 2
40.9956 42.2413 24.243 1198 2
44.3445 40.6845 21.2786 25049 1
46.0737 40.9138 23.4668 2119 2
46.0836 43.082 21.1408 1254 2
46.7923 43.7042 24.003 1253 2
47.4374 40.4319 20.7354 41038 2
48.7075 41.1989 22.9413 2113 1
49.0377 43.3652 21.4525 340 2
51.5816 41.9193 22.4781 289 2
52.9121 43.6405 21.172 1307 1
53.2286 40.3561 23.951 20299 1
55.1295 40.6384 21.4061 18427 2
54.3915 42.4798 23.1646 39218 1
55.752 43.8748 20.8128 1350 2
57.193 41.9825 23.0602 19337 2
60.0889 40.5549 22.8338 20206 2
60.5223 42.7046 20.9078 18479 1
60.1727 43.408 23.5485 20298 2
58.511 43.6615 21.3362 1255 1
58.006 40.1622 24.7883 18378 1
62.0752 40.7552 21.0279 18379 1
63.2205 40.1386 23.5436 19338 2
62.4754 42.6887 22.2147 18435 1
65.1856 42.093 22.1495 19384 1
65.4129 43.5812 24.4163 21284 2
70.6241 41.8553 20.7728 19401 2
66.7947 40.8004 23.9243 20305 2
69.956 41.5995 23.849 19389 1
68.1594 42.2138 22.2643 19396 1
68.2807 43.5707 24.8349 20308 2
73.9144 40.6301 22.3849 20361 2
72.2004 42.4903 22.883 2141 1
73.2585 43.6352 20.7213 18488 2
74.7954 43.0019 24.1088 19447 2
20.9617 44.389 20.6243 48570 2
18.8965 45.2118 22.7726 63282 2
19.4729 48.2842 22.2223 63274 2
19.9589 46.9382 24.5675 48662 1
22.1134 46.2852 22.7995 53468 2
75.0112 46.418 71.6289 27785 2
24.0533 45.2349 24.4246 2088 1
24.4586 47.8879 24.1041 63527 1
25.8043 45.9581 22.5636 41064 2
27.0227 48.6729 25.0209 63281 2
29.09 48.0732 22.9307 24951 2
29.936 45.8015 20.9803 41946 2
27.7659 46.1698 24.2502 1131 1
30.1171 45.2235 23.9266 2046 1
30.0785 18.2076 31.2025 21884 2
33.0831 45.2711 22.4939 2157 2
31.7276 47.862 21.0668 41115 1
31.4365 47.0424 23.3151 2922 1
34.8857 46.0051 24.3846 3952 1
38.7626 46.1271 21.3695 41124 2
35.6929 46.2529 22.218 41990 1
37.5722 46.4328 24.4348 2159 2
36.9864 48.1566 22.1741 2155 1
39.6206 44.6817 23.5169 2156 1
41.756 44.4559 20.5693 1249 1
41.5596 46.7516 22.8314 1293 2
44.1633 45.8984 23.5183 2162 1
44.4167 47.6854 21.7039 2169 2
46.1109 45.6057 22.1158 381 1
46.232 46.7557 24.3923 21219 1
47.4885 48.4409 22.1094 41079 2
48.3907 45.8189 23.1686 385 1
51.2126 45.1526 23.7088 25040 2
49.8528 46.595 21.2186 1305 2
52.6176 46.162 21.4983 1345 1
50.1961 48.0482 23.9628 2213 2
52.7245 48.6696 22.6465 19428 2
54.1829 45.0389 23.3446 1306 2
55.092 47.3775 21.0394 19426 2
55.795 47.6078 24.1084 21280 2
57.2832 44.8496 23.7069 1303 2
61.0463 45.5394 21.5784 20338 2
59.4351 47.0086 23.7033 2172 2
57.9623 46.4562 20.9069 20346 2
62.9977 44.7979 23.3401 20304 1
63.974 44.8164 20.7835 19386 2
65.2402 46.1253 22.9914 25875 1
62.7249 47.6461 23.18 18534 2
64.9889 48.1629 21.2008 20344 2
65.8005 48.3765 24.5009 20351 2
62.5829 47.4265 20.3441 1274 1
70.3339 44.4 22.4822 19436 2
66.9379 44.5618 21.6307 21192 2
68.2396 46.5343 23.6751 19439 2
69.2396 46.8465 20.7902 18476 2
70.9938 48.1051 23.5435 2268 2
73.5042 45.6053 23.1328 20313 2
71.8278 45.9415 20.7889 18542 1
18.3946 51.1326 22.6545 54461 1
20.9615 50.7553 22.798 63632 2
23.2253 48.8614 21.7556 48669 2
24.6493 51.6725 21.5545 63235 1
24.6132 50.7314 23.8485 63483 2
22.6924 53.2539 23.0029 63481 2
61.5938 74.8576 38.4556 25295 2
26.2154 48.9617 21.8979 2085 2
29.7428 50.1576 21.1894 2040 1
27.6826 51.3606 22.9486 2089 2
30.7842 52.3373 22.5708 40239 2
26.9446 52.516 20.3715 2084 2
34.136 48.3404 22.6964 2095 2
31.4215 49.5553 23.2068 40237 1
34.459 51.696 21.4999 41120 1
33.2387 51.3735 23.8739 41114 2
32.523 50.2688 20.5442 2048 2
39.1205 48.9626 23.1136 1294 2
36.5015 51.1034 23.1683 378 2
38.2125 51.9563 20.3143 18505 2
39.512 52.3049 23.2404 1339 2
41.2265 52.0946 20.7287 431 2
41.7627 49.3129 20.8803 2207 2
42.0334 49.9688 23.7 2200 2
44.9553 52.6549 22.8932 1386 1
44.3946 50.8298 20.9912 383 2
45.193 49.6228 24.2252 1295 2
46.7988 50.9915 22.456 2240 1
48.6244 50.3779 23.7788 394 1
49.2898 52.1352 21.4881 3092 2
50.2082 49.5926 21.7919 1351 1
51.727 51.5104 23.2363 25001 2
52.1614 50.82 20.6643 436 1
55.1922 50.3913 22.5048 1268 2
53.9729 52.588 21.486 1352 1
56.4331 52.8223 22.8035 1267 1
57.3759 50.6956 24.3019 1310 1
58.0128 48.8256 22.5933 19470 1
60.3576 49.0254 20.9685 19481 2
58.3021 51.3149 21.9892 3150 1
60.2072 50.2032 23.8096 20342 2
60.661 52.5338 21.6678 20390 2
58.8407 52.9628 23.7183 19379 1
63.0436 50.6749 21.8377 19483 2
65.7707 50.3962 22.4562 20397 1
34.462 18.1471 53.9354 18013 2
67.8431 48.848 22.5998 25042 1
67.8031 51.9248 21.1722 19482 2
69.881 49.6941 21.2339 20352 1
69.472 51.3983 23.6848 19488 2
17.7937 48.5659 73.0262 13944 2
73.0422 61.102 20.7433 18692 1
73.6148 48.7778 23.1263 25871 1
72.3154 51.0431 22.2491 19532 2
72.1532 48.4669 20.6022 19445 2
19.4446 53.7933 22.3599 63500 2
21.3061 55.9395 23.8415 48680 2
18.9348 57.434 22.6244 63187 2
24.1429 54.4171 20.7867 63634 2
25.8345 53.5683 23.4813 63188 2
24.2622 57.2842 22.5687 63433 2
23.745 55.5763 24.5616 63485 1
26.644 56.3681 24.5552 53648 2
26.9468 55.9716 21.5057 63479 2
28.7202 53.961 21.8096 3022 1
28.8232 53.9407 24.4712 2195 2
29.4685 56.667 22.9815 63272 2
31.1183 55.3402 21.1792 25023 2
33.256 53.7283 22.644 41977 1
34.1593 56.1293 21.7786 428 2
32.0096 55.5275 24.3898 2982 2
35.0617 53.7498 24.8789 41170 2
37.2245 54.0405 23.6385 477 1
36.3177 56.7051 23.7989 376 2
37.2674 56.5334 20.9221 1338 2
38.8076 54.5523 21.3392 25067 1
36.0905 53.7815 21.3422 41126 2
39.4057 55.7806 23.9071 3191 2
42.4485 53.1282 23.8903 1388 2
43.6128 54.0193 20.8259 435 2
41.1302 54.5233 22.0976 19545 1
42.9757 55.7612 22.9194 481 1
75.0051 22.7544 38.3715 10565 1
40.6173 57.1957 21.7801 429 2
47.7657 53.097 24.1458 1297 2
46.4239 52.9655 21.2034 438 1
48.3275 55.2001 21.6908 1348 2
45.6301 55.2844 23.2355 1390 2
46.873 57.6948 23.1649 1393 1
46.5735 57.6862 20.5917 18712 2
48.6307 56.3068 24.6135 20463 2
51.629 53.7119 20.6268 1392 2
50.35 54.0178 23.3637 19565 1
50.9509 56.041 22.098 491 1
53.018 54.3932 22.741 1399 1
54.3138 52.757 23.9649 19469 1
55.2851 54.8835 21.0625 20435 2
54.6668 55.609 24.2359 19657 1
53.5676 57.2418 22.3213 1398 2
57.2777 55.3586 23.4296 25887 2
58.128 53.8507 21.2348 19517 1
60.02 56.0016 21.033 18630 1
60.3348 54.9538 23.0704 25865 1
57.7239 56.8923 20.7669 1401 2
61.77 57.2621 22.2122 19572 1
59.4355 57.7993 23.5779 444 2
65.3808 53.1655 22.3569 19486 2
61.8512 52.9875 24.4517 19476 2
62.8574 54.6582 22.0844 19570 2
64.0687 56.9299 22.6233 19520 1
66.171 56.2243 23.3655 19585 1
65.6879 55.6365 20.4524 19581 2
68.3568 54.5217 23.2944 19524 2
68.4475 57.6266 24.3962 19626 2
68.3509 54.5925 20.5338 19523 1
68.0656 57.228 21.4596 19586 2
73.8993 25.9697 20.4114 30993 2
71.0842 53.7978 23.8616 20402 1
70.9312 53.5318 21.1458 19489 2
72.8173 56.6866 21.2063 19533 1
71.0825 56.3575 23.0023 20444 2
73.6582 54.2127 22.1069 19530 2
74.0983 56.3715 23.619 19534 1
19.5702 60.7774 21.8591 53700 2
21.5177 58.7341 22.3371 63438 1
19.8538 59.3456 24.2383 63040 1
17.6197 62.7895 37.417 62927 2
22.8549 61.1137 21.5457 63600 2
25.2366 59.8202 22.2266 63410 1
25.4904 58.6512 24.5776 63042 1
24.493 61.2037 24.5342 54632 2
30.076 60.0142 22.9112 24954 2
27.4367 58.6561 22.5236 53557 1
27.4189 61.2793 23.3942 63227 2
28.3503 60.7464 20.4832 5799 2
33.5444 57.6856 24.1593 24941 1
32.1703 58.5295 22.0428 1382 2
35.1358 59.5473 22.879 19499 2
38.1359 58.8947 22.7433 1385 2
37.3548 60.486 24.6346 20458 1
39.1089 62.1909 24.8236 2286 1
42.2015 57.9195 23.9805 2333 1
42.7158 59.2719 21.7911 19607 1
40.647 60.3579 23.3746 24937 2
43.745 60.2931 24.3543 1441 2
43.2945 61.9009 21.5051 1440 2
38.3554 74.7002 62.1107 10856 1
44.9147 59.773 20.7094 1391 1
44.5248 57.9367 22.8122 1387 1
46.5055 60.4609 23.0053 1445 2
49.2786 58.4217 22.2538 1447 2
49.7806 60.8114 20.9293 19616 1
51.5519 59.5194 24.0654 19569 2
49.2475 61.0173 23.4717 1444 1
52.0247 59.2348 20.6116 534 2
55.3112 59.6856 20.6257 20473 2
53.8222 60.3804 22.7285 2342 1
56.2985 61.2797 22.7078 25862 1
56.3061 58.325 23.1239 448 2
58.3478 59.9266 21.5862 19618 2
60.1607 60.7217 23.5329 20476 1
61.0629 61.7316 21.206 18729 2
74.8095 69.435 36.8549 23501 1
74.8339 75.2483 60.6919 28003 1
62.9158 59.6844 22.7588 19580 2
65.9682 59.3218 22.5394 1420 2
64.2084 61.5329 21.3459 1455 1
68.7745 60.2071 22.7445 20487 2
70.6954 58.8399 23.8658 20488 1
71.0402 58.9826 21.2374 20485 2
73.5269 58.9143 22.4714 19593 2
71.5662 61.0091 23.4462 21396 1
73.9161 61.1751 24.8079 20497 2
21.4559 61.7274 24.1772 63425 2
21.138 63.736 21.2472 54635 2
19.1215 65.5923 20.7178 50596 1
18.5697 63.2352 20.6187 53783 1
21.8279 65.0047 23.9663 63177 2
19.2874 63.5733 23.1468 55588 1
25.6117 62.284 21.8683 63474 1
23.867 63.5491 23.0683 63141 1
24.2907 64.4232 20.5883 63411 2
24.3076 65.865 22.9833 63140 1
26.8234 64.4425 22.8307 63144 2
37.8992 61.7462 22.1811 2288 2
39.1444 64.2365 23.1078 2328 2
36.2024 62.9075 24.4903 24997 2
40.3963 62.2892 21.1451 526 1
41.7071 62.9555 23.9087 1439 2
43.0436 64.6247 22.5209 572 1
41.0274 64.716 20.6633 19546 2
46.0381 62.2443 20.9647 525 1
45.1905 63.2848 23.7222 1442 2
45.3247 65.1239 21.4184 579 1
48.4317 63.1722 21.8774 1446 2
47.0469 65.9836 23.1348 578 2
51.7453 62.1729 22.2253 19660 2
50.5157 62.9627 24.2622 25036 1
49.316 66.0106 20.7793 1487 2
50.1164 65.0989 23.1516 2338 1
52.6988 64.99 22.4917 2381 2
54.5135 62.7545 22.421 19665 1
56.3358 65.2747 22.9694 2430 2
56.2947 62.3274 20.5171 18770 1
56.4261 62.6418 24.7277 20518 1
54.4938 64.394 24.7681 1490 1
71.1656 18.0888 44.1528 7635 2
59.9675 64.1299 20.3679 19622 1
58.2531 62.9466 22.4916 20521 2
60.9271 64.2385 23.1217 19670 2
58.5432 66.1934 21.2235 25882 2
58.6061 64.495 24.7426 20522 1
64.911 61.6829 23.7739 19625 1
61.6336 65.9682 20.8809 25901 1
62.4741 62.203 23.6259 25860 1
63.8912 64.224 22.0345 18779 2
66.0674 64.1452 23.9279 2354 1
67.2804 62.0867 24.3491 20533 1
70.6297 61.7339 21.0971 19632 1
66.3242 65.1049 21.5948 19629 1
66.8116 62.4758 21.9023 546 2
68.2321 65.7794 23.4851 18736 2
69.707 63.18 23.2973 20527 2
72.5057 18.2532 47.6962 18364 1
70.383 65.2411 21.6611 1461 1
72.6193 63.1871 22.4205 19679 2
46.4742 18.1352 26.9102 22534 1
74.51 65.2975 23.1079 22590 1
73.0041 65.9538 20.6553 43679 2
19.5095 66.139 23.0849 54678 1
18.3327 67.9726 24.248 63016 1
22.0612 66.7596 21.3364 48693 2
19.4699 68.1937 21.9057 63142 1
21.385 69.5354 21.6002 63128 1
21.4471 68.1895 24.1401 54677 2
68.7156 74.7465 63.9924 29881 1
23.9777 68.3577 22.7104 55682 1
25.9112 67.0337 21.2667 54813 2
26.1688 67.164 24.4734 63139 2
25.3127 70.4024 22.8697 50703 1
23.6143 66.8548 25.1298 55685 1
27.5519 69.1191 22.8378 1383 1
29.5831 69.5616 24.7586 4461 2
41.1149 66.4725 23.9714 1482 2
43.2273 67.0726 21.5523 18753 2
44.2316 67.3237 24.4687 2420 2
46.0236 69.33 23.0364 1483 2
47.9911 68.571 24.4958 1528 1
48.4527 68.2161 22.1011 19699 1
17.5333 68.8776 66.5528 12325 1
52.3584 67.5791 20.7258 632 2
50.8305 67.9138 23.4325 1488 2
52.686 69.6869 24.3701 1534 1
49.3013 70.805 22.4537 1531 2
52.6275 70.528 21.7344 19711 2
54.4326 68.0957 22.8727 1533 2
57.378 68.4362 23.9112 2439 2
54.9157 70.5544 23.6329 2431 1
55.7653 70.5827 21.1639 25821 2
53.1266 66.8469 24.7266 2427 1
17.7517 24.0189 53.8284 8284 2
58.1074 69.0942 21.2206 2425 1
59.1418 70.3685 23.6684 25855 1
60.6002 68.3975 22.2682 19718 2
59.4131 66.4417 23.8313 20569 1
62.2721 66.3869 23.7577 19624 1
62.8168 70.5023 21.0337 19672 2
63.356 67.7288 21.5765 25856 1
65.4901 70.0226 22.8976 20824 2
65.0736 66.7036 23.4664 20529 2
63.0517 68.8533 23.7896 20571 1
66.0978 67.9723 20.7353 21739 2
68.0451 68.4299 22.6097 25881 1
68.3993 66.4892 20.9889 21691 1
69.8334 68.119 24.1081 25816 1
70.2457 69.7378 22.3857 18741 1
74.5679 67.2807 25.0755 22592 2
71.9105 66.2727 23.6167 21693 2
70.5631 67.4513 21.3916 2396 1
72.7482 68.9796 22.1377 2592 2
74.2874 69.804 24.2518 21748 1
72.0801 68.6563 24.7208 25853 1
19.4631 70.5333 23.5695 54810 2
21.437 72.432 21.3067 63116 2
19.229 73.5608 24.2347 54859 2
21.9227 72.7839 24.1329 63010 1
18.3998 72.3114 21.999 63105 1
22.8188 70.5722 23.4792 63124 1
24.817 72.3413 21.4707 3538 1
23.6328 70.5431 21.0273 54814 1
25.5486 74.5718 21.6016 4502 1
25.0348 72.6158 24.3774 63125 2
22.8783 74.6913 22.278 22525 2
28.3535 74.3335 21.1818 3589 1
27.648 72.0939 22.5705 3587 2
30.6651 74.2055 22.2963 63178 1
30.2013 72.1668 23.5942 4458 1
26.9689 74.6123 23.4315 24854 1
32.3182 73.5802 24.4652 24933 2
47.6297 71.1538 24.5013 3300 1
51.9283 72.7397 24.0324 1537 2
54.7459 73.2696 22.5265 22631 2
56.7893 73.7003 24.1704 21729 1
17.4898 55.8117 67.3342 12274 1
59.7119 71.3913 20.9751 19667 2
57.4058 71.8793 22.5251 2432 1
57.4059 74.6094 21.9105 12850 1
59.5181 74.2852 20.6156 25814 1
59.3986 73.2606 23.5427 20618 2
61.647 71.1193 23.7459 20619 2
62.1023 73.5359 21.2797 21788 2
64.7842 73.3864 20.8542 20827 1
64.4906 72.8767 23.6362 22588 2
68.1197 70.7951 21.7614 21740 1
67.1808 73.2419 22.2802 21781 2
68.4218 70.9989 24.3594 21737 2
70.2881 72.5088 21.8731 22688 2
69.6029 73.2943 24.6506 25817 1
17.6546 58.6323 40.726 57312 1
73.5171 72.1403 22.1336 20834 2
71.6786 71.2484 24.5007 22642 2
18.1485 19.2805 28.3973 59349 2
20.1701 19.2193 26.0553 1881 2
19.4074 22.2623 27.6374 20051 2
21.5181 19.8823 28.6182 2716 2
21.9967 21.6505 26.3901 25064 1
23.7524 19.4781 26.4291 20009 2
24.0903 18.3358 29.0943 2718 1
26.9527 21.3351 29.0074 2772 1
27.3596 20.6236 26.3301 2717 2
29.1137 19.1119 28.577 1847 2
29.3378 21.7878 28.2996 2776 1
30.9493 20.3821 26.5487 1891 2
33.7161 20.4475 27.1688 987 1
34.7322 21.7426 25.5035 2726 1
32.1174 20.3356 29.4194 3653 2
27.3553 39.2856 20.4673 41016 2
36.4482 18.2323 27.1909 3659 1
35.5011 19.4399 25.3474 20120 1
38.401 19.1927 25.6669 21910 2
39.3402 21.6646 25.6683 3657 1
36.6679 21.3518 27.177 1900 2
38.823 19.417 28.8075 3663 2
41.3396 20.2017 26.4384 22582 2
43.2995 22.4828 28.0105 2784 2
43.9232 21.1422 25.5564 21871 1
43.9504 19.5646 29.3075 3667 2
43.7541 18.3316 26.3653 22714 2
45.5578 20.4907 27.4211 12875 1
48.2024 19.957 26.2176 23264 2
45.9772 22.4913 29.455 2791 2
40.0685 74.753 40.3937 7262 2
48.7872 21.9609 28.2166 2736 2
50.5811 21.1203 26.0808 21895 1
51.0474 18.1333 25.676 3670 2
52.0828 21.73 28.2092 22570 2
50.2769 19.5571 28.4262 22528 1
52.6051 18.8556 27.8114 21898 1
55.9193 20.1118 25.2366 23127 1
55.0775 19.8934 28.0483 22564 2
53.1487 20.4621 25.3269 2785 2
17.804 69.406 42.8028 58481 2
57.4611 21.1175 26.6363 23632 1
57.9211 18.8935 28.6817 21893 2
58.0462 18.4487 25.4804 11602 2
60.6746 19.2835 25.7826 20993 1
59.895 21.1593 27.8207 20141 2
61.1949 22.3955 25.6449 20104 1
57.0476 21.8771 28.8044 12459 1
62.8882 20.5064 27.5379 25850 2
65.8095 20.9591 26.077 11550 2
64.9712 19.2371 28.3391 31025 1
64.3294 18.7177 26.1928 12897 1
68.3231 19.2458 25.5251 30802 2
69.9681 20.2401 27.4438 1659 1
67.4619 19.5073 28.466 30814 2
66.9807 22.0302 28.6685 12415 1
68.6836 22.3196 26.6278 12867 2
74.7702 35.4466 37.5722 22065 1
71.6531 21.9799 27.9324 11516 1
71.3446 19.6566 25.1653 22613 2
74.0287 21.2525 25.9824 30808 2
72.2415 19.6285 27.6896 12506 1
74.6229 19.6138 28.0656 12412 1
19.9722 23.1957 25.2571 1887 1
19.9161 25.1208 26.8659 1930 1
67.6195 72.3047 72.5462 26551 2
25.1145 23.8381 25.1709 1884 1
22.4017 24.4404 25.6431 1886 2
22.3931 23.2457 28.6327 1841 2
21.9879 25.9644 27.7474 2818 1
24.6662 22.0909 27.0909 24990 2
24.5907 25.7712 27.5367 976 2
27.099 23.6667 26.9459 1889 2
29.3741 22.6508 25.6393 936 1
29.6953 24.2424 27.284 2771 1
29.2379 26.1732 29.1263 1892 2
32.4262 23.1921 26.4966 2775 2
31.0755 26.4398 26.5324 1946 2
34.2339 22.4836 29.1486 1948 2
33.1946 25.3648 28.7573 2825 2
34.1 26.4933 25.7504 25028 2
35.0828 23.8536 26.8964 2778 1
36.6708 26.4803 25.2922 1951 1
37.6961 24.1496 26.0508 25025 2
39.4714 25.9648 27.969 4664 2
36.9506 23.7469 28.7018 5526 1
36.1201 26.0768 27.9939 2828 2
39.5074 22.3605 28.0921 3662 2
44.7164 25.8868 25.034 2837 2
43.7941 23.446 25.5291 22532 1
41.0562 23.9402 25.9617 23152 2
42.3753 25.667 27.7216 3759 2
46.3885 22.8623 26.2693 4627 2
44.9472 24.5398 27.9257 21900 1
47.3003 25.8844 26.8577 2786 2
47.7405 24.4202 28.8119 4629 1
46.3633 26.2164 29.4574 3720 1
49.3666 23.5843 25.307 750 2
52.4616 23.8033 25.5525 2024 2
50.4822 24.5858 28.0915 1107 2
50.0512 26.4523 26.0788 2027 1
52.4296 26.803 26.003 42770 1
53.2994 24.4967 28.0859 21056 1
55.3814 25.7934 26.1217 40027 2
55.1157 22.5738 26.8013 30857 2
56.7672 24.3775 28.2648 2028 1
54.9516 25.8469 29.3437 1056 2
61.423 25.2879 25.264 713 2
58.6647 23.8067 26.334 20098 2
60.4667 25.6709 27.7317 20201 1
59.327 24.0577 29.4891 20143 2
61.7838 23.5343 27.82 20096 1
63.8194 23.2698 25.6042 20100 2
63.2885 25.9479 27.6026 19684 2
64.4275 23.1242 28.5889 25880 2
65.9586 26.1376 25.756 25879 2
66.3522 23.7953 26.6406 12414 1
68.7144 25.3039 25.7605 19196 2
67.4574 24.6067 28.675 12419 2
70.3645 24.2359 28.0215 20160 1
74.7428 22.1403 28.5085 12890 1
73.8466 24.2594 24.9919 20157 1
73.1753 24.1894 27.4656 1651 2
74.7887 26.7475 26.6684 20163 2
18.6666 28.7795 25.1492 63548 1
19.9855 27.8149 27.2353 2763 2
19.0981 30.7492 27.3358 1936 2
21.4351 30.4034 28.9673 1982 1
17.781 28.5855 29.2604 56033 2
22.2425 29.955 26.8283 1929 1
22.5259 27.6769 25.48 1885 2
25.2323 29.0236 26.953 1941 2
22.874 28.3502 28.8724 2859 2
27.5219 26.7821 26.5911 2769 2
27.7689 29.3566 25.4405 25059 1
29.3904 28.9164 27.583 2864 2
32.0603 28.9063 26.6023 2872 1
34.5004 29.5293 25.9298 24982 1
33.9844 28.0407 27.7559 24984 1
32.7026 30.7368 28.5892 1993 2
37.4301 28.7246 26.3521 2831 2
38.8104 29.9769 28.7465 2862 1
35.7129 29.6829 28.8209 3752 2
39.9274 28.7761 27.0735 2873 1
43.1168 30.0492 28.9615 2789 1
42.7138 28.3684 26.5782 2069 2
40.9144 28.3329 29.3817 2879 2
44.01 31.0509 26.5566 3713 1
44.9079 26.894 27.6088 2006 1
45.6533 28.5437 25.2437 41849 2
48.1535 29.4976 26.6106 2072 2
45.5333 29.494 28.3018 2984 2
47.8381 30.6652 29.005 2897 1
45.9858 31.1433 24.8235 2942 1
49.2062 27.2683 28.2961 2893 1
52.2497 27.1004 28.7142 2898 2
50.7858 28.9117 27.3505 3666 1
52.5967 30.0598 28.9027 1156 1
50.9959 31.2945 26.2982 25056 2
53.3348 29.1225 26.4436 23129 2
55.45 28.1311 27.8645 2071 1
55.1144 30.5025 28.5129 2029 1
58.5037 26.9547 25.6109 19234 2
58.106 26.8308 28.7569 3827 2
57.615 29.5934 27.0333 20145 2
60.7227 28.6341 26.7221 25878 2
59.4802 29.1594 28.9547 2856 1
61.3471 27.3696 29.3303 19239 1
63.3272 27.75 25.2701 20151 2
63.3081 28.5513 27.9712 20209 1
65.2025 29.4091 26.1223 21002 2
62.5609 30.5323 26.9205 20257 1
64.8559 30.6032 29.0114 20150 2
66.0281 27.5124 28.4177 20207 2
69.1505 27.1416 28.5103 21054 2
67.928 28.1054 26.4039 20216 1
68.0077 30.1735 28.1276 21044 2
70.1709 29.1985 26.6258 20159 1
71.6621 70.807 20.358 21785 1
71.6348 26.7562 26.8852 20113 2
70.7736 29.8523 28.9322 20149 1
72.3547 28.4098 24.8953 18336 1
72.5011 29.9977 26.8875 19249 1
73.1994 28.4473 29.1672 20165 2
19.608 33.1354 25.9652 1934 2
20.5857 34.4501 28.6734 1977 2
18.1111 33.3144 28.3153 2811 1
24.3753 31.1419 29.3066 2912 2
22.1244 35.2492 25.4298 1981 2
22.4795 32.5439 27.0028 2863 2
25.0164 31.8626 26.6597 1986 1
23.8305 34.1938 29.1441 2957 2
27.5253 31.3194 27.2235 2817 2
29.8833 30.8783 29.3917 20205 1
26.2794 34.3639 26.7888 2042 2
28.6628 33.0709 25.3244 1938 1
30.1827 31.9746 27.3136 3749 1
29.8023 34.8805 26.9259 1990 2
27.9423 35.0681 28.915 2868 1
29.204 33.2378 29.2175 2913 1