ITEM: TIMESTEP    
25000     
ITEM: NUMBER OF ATOMS  
77888     
ITEM: BOX BOUNDS pp pp pp
17.607 132.393    
18.0782 131.922    
19.1322 130.868    
ITEM: ATOMS x y z id type
20.5261 18.5849 22.249 1839 2
19.2371 21.0678 20.909 72779 2
21.7486 21.5594 22.8969 977 2
20.4964 18.4671 19.3972 20011 1
22.0877 20.5919 20.037 72830 2
23.1543 19.167 22.6283 23170 1
25.3872 19.8172 22.7072 22628 1
24.2161 21.5478 21.2607 72824 1
72.0641 35.9708 19.3115 18386 1
69.7288 61.2303 19.2466 19631 1
26.9112 22.0059 22.0288 1846 2
29.7199 20.9278 22.4398 20062 2
29.449 21.6427 19.8891 2719 1
27.7768 19.2098 20.5614 22548 2
32.0755 20.3023 20.5073 24988 2
32.358 21.7475 22.8376 43709 1
34.5531 20.497 21.7624 1851 2
37.2889 20.905 19.7111 22537 2
37.091 21.7818 22.6862 1899 2
38.6905 18.7154 19.8427 1904 1
66.0491 55.0747 19.3462 19581 2
39.7036 20.1101 22.0735 1854 2
41.9312 21.7135 20.591 40934 2
41.7557 18.3323 19.9838 23153 2
42.7247 19.7718 22.7323 23128 2
41.227 22.0418 23.3659 3665 1
44.615 19.7801 19.9691 1099 2
47.4222 20.6047 20.707 40834 2
47.5668 21.8848 23.0466 1908 1
45.6101 19.7421 23.2469 22576 2
49.7629 21.5395 19.8686 40893 1
49.8724 19.5741 22.3395 22529 2
52.219 20.696 20.0842 38365 2
49.8782 18.7419 19.2883 38521 2
52.3601 18.6877 22.622 22574 1
54.6924 20.5457 21.893 23176 2
56.9706 19.3089 22.207 13500 1
57.2821 22.1301 20.8125 38629 2
74.5682 66.7214 74.3197 26597 1
49.9976 74.8541 70.9334 17089 2
58.9338 21.1008 23.5059 31285 2
60.7275 20.7398 20.722 31298 2
59.686 18.4842 22.2831 19184 2
58.0457 19.6464 19.6717 38509 2
63.8318 21.1326 21.1363 21892 2
62.7577 18.8776 19.9075 31021 1
65.8193 20.139 22.7354 20998 1
17.9577 31.57 23.7765 53355 1
66.9438 18.6851 20.361 31023 2
68.4637 20.7297 22.2504 19245 2
66.4881 21.4255 20.1918 31293 1
74.559 19.7363 19.9108 31289 2
73.5401 18.6589 23.1193 21403 2
71.3045 19.7801 20.9451 30996 2
73.6421 21.612 22.3118 12413 2
20.954 24.1166 21.5112 25062 1
19.5584 25.6627 20.106 970 1
17.9634 23.7709 21.8411 1928 2
22.0604 25.7528 20.1141 52493 1
74.8856 22.9691 57.4981 5143 1
23.7961 24.1541 22.4883 25024 2
25.2817 23.3839 20.1227 926 1
22.7762 23.2505 20.0746 1942 1
22.328 26.2847 22.5579 1888 1
24.8965 26.4631 20.4602 25061 2
26.8182 24.9463 21.8113 1945 1
29.1499 24.0114 21.834 1895 1
29.9518 26.4027 20.5701 40920 2
28.0775 23.8886 19.3815 1943 2
31.2694 25.4072 22.7021 25060 1
31.7377 23.4707 20.7244 989 2
33.3909 26.2793 20.9921 1035 2
33.6663 24.1087 23.3378 25027 2
39.3871 22.5184 20.0625 2790 1
35.1228 23.3568 20.762 40928 2
35.49 26.3145 19.1015 40922 1
36.3845 25.7086 21.7928 2729 2
39.1329 26.3375 21.1719 2836 1
39.0321 23.9963 22.5468 3770 2
37.9451 24.4613 19.3233 43667 2
40.9192 24.9414 20.4524 1956 1
42.2407 24.1947 22.5212 2782 1
43.1572 23.9459 20.1948 41801 1
42.8243 26.595 19.5875 1897 1
44.8676 22.5367 21.8845 43705 2
48.1665 23.6759 21.1281 40989 2
45.0216 25.5829 21.0463 40939 2
46.3919 24.2819 23.0775 1153 1
48.7714 26.1817 19.5936 23205 2
51.1408 22.4761 22.2218 1110 2
50.3418 25.677 22.3557 2020 2
51.2376 24.2205 19.4754 19180 2
52.8724 24.7561 21.7407 23642 1
54.0992 26.6846 23.024 20144 2
56.3827 24.891 22.4064 18330 2
54.9817 26.3865 19.9872 19382 2
54.0126 23.0688 22.8344 40030 1
54.2716 23.2591 20.0902 40025 2
56.719 24.4694 19.2858 18326 1
59.0171 24.0255 22.3918 20148 1
58.6608 25.8301 20.0323 19227 1
58.9316 26.3232 22.2983 246 1
61.4601 25.6397 20.8606 19229 2
59.7085 23.3769 19.525 199 2
61.3518 22.7624 22.3702 19285 2
62.2955 23.1073 19.8066 30803 1
64.3534 24.6614 21.6036 20106 2
65.6893 26.6671 20.1504 18337 1
66.2953 22.8167 22.6918 31002 2
69.0222 23.6789 21.4963 1065 2
67.1538 25.3874 22.1231 19241 1
68.5352 26.6774 19.918 30998 2
66.9023 23.9943 19.4531 31294 2
71.5379 22.6344 20.361 12457 1
71.0133 25.6136 20.6569 30290 1
72.853 24.2043 21.5791 43162 1
71.1682 24.9777 23.1006 19299 1
29.2757 18.3263 64.6771 10018 2
20.5376 27.9085 21.0977 1933 2
22.0784 30.8035 20.8658 1071 2
18.2148 29.9344 21.0815 63536 2
23.144 28.491 21.9166 63545 1
25.3966 29.8498 20.5728 1023 2
25.3322 28.8559 23.0034 40916 1
27.6371 27.8214 21.7561 39954 2
29.9109 29.3412 20.3101 983 1
28.1714 31.1742 20.6208 40965 1
28.9389 30.2437 23.241 1947 2
31.2864 28.2092 22.7235 41845 2
32.6627 29.7469 20.4324 41885 2
33.1733 30.1506 23.008 1033 1
35.4113 30.931 23.2203 2010 1
35.4612 28.6349 21.4773 40926 2
37.374 29.8464 20.2051 2000 1
37.9962 28.192 22.3478 1083 1
37.702 27.5391 19.6908 2779 1
42.3916 27.0701 22.0935 41842 2
40.1444 28.8946 20.7063 1907 2
41.375 31.2781 21.7108 42701 1
43.0518 29.5614 19.8339 2001 2
43.2572 30.1658 23.1498 43703 2
47.5212 26.8522 22.5856 40935 2
44.7903 28.1749 21.4831 40985 1
45.7238 30.7298 21.3891 41032 2
47.1585 28.597 20.4778 41894 1
47.9828 29.6995 22.7109 1954 1
48.8164 30.7944 19.6121 41898 2
49.526 28.3514 21.083 42717 1
50.3668 30.4196 22.1993 42715 1
51.954 27.1227 20.6238 1165 2
52.1404 28.7941 22.7939 40996 1
52.0386 30.6986 19.99 1163 2
54.1507 28.8711 21.3666 1105 1
56.9742 28.0195 21.7279 19231 2
55.4704 30.2578 19.5679 248 2
53.6224 31.0585 22.7137 1164 2
59.1442 29.7805 23.1564 200 2
60.0547 28.4558 20.5179 2792 2
58.1951 30.4152 20.4392 1109 1
61.0196 27.6955 22.7793 19243 1
61.3181 31.1554 20.4656 1112 2
63.2987 28.0788 20.8076 19242 2
65.0187 30.7505 21.6263 19289 2
62.2753 30.0782 23.2832 20214 2
69.6242 26.794 22.7937 19186 2
66.2721 28.0056 22.424 12515 2
68.7387 29.1438 21.0884 43818 1
67.6598 31.2724 20.9519 20162 1
66.3508 29.1829 19.2918 30833 2
73.0456 26.8353 22.3438 1076 2
71.0075 29.0537 22.7124 19294 1
73.7134 29.9829 22.4028 19300 2
73.2303 30.5782 19.9181 19297 1
74.0865 28.3355 20.1407 43804 1
71.3933 28.2896 20.0092 18339 2
19.7388 32.2874 21.6852 1017 2
21.4778 34.0537 19.8212 1060 2
20.542 35.0602 22.6717 63543 1
18.4281 34.9728 21.2202 1121 1
63.1664 18.1703 32.8785 11601 2
22.3236 33.2983 22.4344 1980 1
24.3977 32.8337 20.8184 63681 2
23.9423 35.5642 22.1924 1069 1
26.589 35.0659 22.8535 1075 2
25.1785 35.3067 20.1382 43702 1
26.3598 31.7376 22.8493 20152 2
27.0422 33.3258 20.5744 1070 1
30.9526 31.6739 21.5894 1940 2
28.6896 33.4787 22.3089 1989 1
30.9758 34.8751 21.1718 1029 2
33.4009 32.9831 22.8647 24974 2
32.985 33.1455 19.9395 984 1
35.077 31.6278 20.6134 41893 2
36.6879 18.4185 21.7743 22536 2
38.3815 31.7547 21.8385 1199 2
36.1224 34.4229 21.1398 41937 2
38.6891 34.3537 20.3373 19202 1
38.7716 34.8719 23.2785 20283 2
40.5775 33.482 21.6354 2002 1
43.387 32.5931 20.5734 41848 2
42.7369 35.3725 22.136 2990 2
43.8453 35.4903 19.8967 1159 1
41.0359 34.8854 19.3519 41024 2
40.5729 31.9403 19.2412 40978 2
46.0168 34.4016 21.3087 2067 2
47.8682 35.4291 22.9004 236 1
48.105 32.5049 22.3017 237 2
61.2753 17.983 40.5417 9404 2
49.0559 34.4411 20.9249 41035 1
51.2321 33.0121 21.9784 2022 2
50.3494 33.1159 19.3205 291 1
51.5026 35.4157 19.8292 1155 2
52.9993 35.1157 22.0521 1208 1
56.6238 31.526 22.3846 2077 2
54.9709 33.8068 22.9131 249 1
56.7261 34.2345 21.2095 19334 1
54.2839 33.262 20.3491 20251 2
58.9184 32.743 21.3046 19233 1
60.9279 34.1975 21.1388 43165 1
58.9904 35.2076 19.9138 1119 1
60.4267 32.6079 23.6186 20212 2
58.6469 35.7067 22.5426 2121 2
61.8563 34.9582 23.1944 20213 1
65.8794 31.9895 19.3815 19288 1
62.74 32.9562 22.0486 19341 1
65.3009 33.8111 21.9126 19339 1
63.2568 35.2913 20.9406 19236 1
65.5545 35.8074 20.5922 20215 1
63.5179 33.2532 19.4312 19232 2
70.4329 31.373 20.7526 19246 2
67.7366 33.8049 20.2756 19349 2
69.4618 33.2824 22.8872 19295 2
66.938 32.267 22.8933 19293 1
70.8499 34.2546 20.6772 25899 1
72.7656 33.1261 22.1503 19301 2
75.0547 50.1568 67.9023 28489 2
20.008 36.6106 20.4097 63542 1
18.5644 37.5657 22.4915 63539 2
21.7444 37.5093 22.3508 1979 2
18.085 38.2537 19.972 63669 1
20.2688 40.1329 21.4743 63537 2
22.8966 36.7258 19.6868 1988 2
25.1623 38.0442 21.2076 2036 2
22.7405 39.357 20.4726 2045 1
23.5002 39.7118 22.9054 2039 1
29.4532 35.938 23.0363 1074 2
27.8027 36.008 20.1896 41015 2
29.8384 37.837 20.4738 1028 2
27.3361 39.217 19.4931 41016 2
27.7961 38.436 22.7758 1122 2
33.7181 35.7898 21.3098 2829 2
32.2003 37.7821 22.0675 1079 1
34.9627 38.657 21.6452 1998 2
48.7708 18.1554 48.0454 5197 1
35.0568 39.7987 19.2665 41071 1
47.6388 65.4769 19.1121 577 2
37.806 37.038 20.9364 41068 2
40.1781 39.322 22.1994 41984 2
40.2443 36.6071 21.6204 40988 1
42.7422 38.0938 20.7171 1204 2
42.9286 40.0342 23.0527 25047 1
45.1112 38.9361 22.9569 41031 1
45.555 37.5423 20.5989 286 2
47.8361 38.3281 22.5165 330 2
48.3524 36.6459 19.5204 40108 2
47.3965 40.0168 19.9181 41038 2
50.453 36.2345 22.6002 1162 2
49.9201 38.4709 20.7622 290 1
52.4904 37.8843 21.3147 18473 2
55.9073 36.0514 23.2291 19276 1
55.1741 36.3862 20.6299 20297 2
55.0218 38.5059 22.5816 388 1
59.3006 37.8236 19.5519 18381 2
57.4408 38.4904 21.6697 18430 2
61.3922 37.3251 21.7659 19286 2
61.6115 39.6336 20.1911 18379 1
61.6571 36.0233 19.4415 44031 1
64.2187 36.1945 23.0865 19281 2
64.1363 38.1626 20.3135 18433 2
62.8682 39.824 22.8588 19338 2
67.2012 35.8678 22.9455 19291 2
66.3017 39.6166 22.5828 20305 2
67.0583 37.6378 20.8094 163 1
69.5021 36.48 20.8986 18437 2
69.0288 39.621 20.4444 18439 2
68.6573 38.2647 22.7997 19340 1
74.9928 71.3796 65.7049 28943 1
74.923 38.0028 21.6304 19298 1
72.4875 36.5104 21.9849 19352 2
70.9804 38.6868 22.1259 20353 1
71.1488 38.2752 19.5902 18443 1
73.2275 39.9748 20.8368 20361 2
73.5164 37.81 19.3399 18489 1
17.7356 46.0536 59.1904 62173 1
20.7269 44.1585 19.7194 48570 2
18.4577 42.2311 21.4621 63648 1
20.9775 43.4012 22.6116 63528 2
17.8721 43.5268 19.379 63651 1
22.7179 41.6585 21.9201 21093 1
24.9566 41.1052 20.2317 41066 2
23.6332 43.8464 20.6781 63650 2
26.0341 42.8759 21.911 2969 1
30.4405 39.7767 22.8703 25055 2
30.4233 40.7207 19.5708 41883 2
28.0359 41.2332 21.4018 43701 2
28.2471 44.0194 21.78 2049 1
30.9232 42.9595 21.9167 2090 2
32.7475 40.1375 21.0415 41941 1
32.785 43.6942 19.9574 24950 1
34.5939 41.8984 21.127 2051 2
32.8195 41.6605 23.6901 1994 1
37.4677 40.1427 20.5071 41072 2
38.3069 41.5477 22.5162 1202 1
37.845 42.7782 20.3001 42033 1
36.7353 43.9715 22.7175 41939 2
39.8422 40.2733 19.5366 42706 1
40.4984 43.0336 20.8893 3133 2
41.9743 40.8466 20.9613 1200 1
43.1057 44.0902 20.0142 1249 1
43.6457 42.769 22.2963 1251 2
55.7997 74.9099 24.3891 21728 2
44.5494 40.2477 20.7721 25049 1
46.4313 41.2536 22.9007 2119 2
46.5016 44.2996 22.8484 1253 2
45.696 42.6475 20.0282 1254 2
51.4077 43.5839 19.2944 2120 1
48.7813 43.2316 20.7184 340 2
49.1137 40.8219 21.9508 2113 1
51.3008 40.7509 20.3653 289 2
51.9299 43.0454 21.8646 25040 2
52.8499 40.5017 22.6341 20299 1
54.6545 40.0975 20.5332 18427 2
54.5287 42.5744 22.0693 39218 1
55.8452 43.515 19.8459 1350 2
57.0274 41.5664 22.2044 19337 2
53.42 42.2913 19.242 1307 1
59.7707 40.1341 22.0506 20206 2
60.4231 41.9494 20.0054 18479 1
60.0002 43.0787 23.0124 20298 2
58.4431 43.2562 20.6662 1255 1
57.6974 40.8301 19.1731 19282 2
62.5295 44.3637 22.5335 20304 1
62.3446 42.1278 21.4698 18435 1
63.8474 44.0471 20.2209 19386 2
64.9174 41.1529 20.6533 19384 1
65.158 42.7684 22.7399 21284 2
68.7472 40.9245 22.9063 19389 1
67.2383 41.9989 20.9303 19396 1
69.8392 43.3712 20.7957 19436 2
71.1325 41.3395 22.0313 2141 1
73.0704 43.2889 20.3726 18488 2
73.6002 42.1598 23.1843 19447 2
18.5944 45.1939 21.7461 63282 2
21.7318 46.4681 21.8987 53468 2
19.2353 48.1565 21.5947 63274 2
20.717 46.9311 19.6289 53549 1
25.4522 48.1074 20.2743 2085 2
25.9735 45.3506 20.9476 41064 2
24.0039 45.605 23.1012 2088 1
23.6047 48.1511 22.2623 63527 1
17.5738 24.941 38.2685 24777 1
28.4908 46.9732 22.0343 24951 2
29.9179 45.3402 20.0297 41946 2
30.8753 47.7133 20.9599 2922 1
31.3588 45.9342 22.3934 2046 1
33.7081 44.5826 22.5636 2157 2
32.5116 46.2171 20.431 41115 1
34.8471 47.0089 20.2878 2092 1
33.5622 47.7894 22.668 2095 2
35.9051 44.566 19.7129 41070 2
38.78 45.7893 21.0607 41124 2
38.4482 48.2382 22.2679 2155 1
36.323 46.7793 22.0198 41990 1
37.1579 48.391 19.6652 41077 2
40.4827 48.083 19.9299 1248 2
41.8893 45.6681 22.0233 1293 2
41.074 48.5394 22.9567 1294 2
42.9685 46.9157 19.7449 43750 1
44.1462 48.0139 21.8207 2169 2
41.0213 45.5428 19.449 19416 1
44.3242 45.6532 23.1024 2162 1
44.9202 45.4955 20.6913 1257 1
47.496 45.7188 20.6297 381 1
47.584 48.2224 21.5561 41079 2
48.6136 45.8725 22.9837 385 1
50.1744 47.8596 23.2024 394 1
50.3294 45.9223 20.8714 1305 2
52.7655 47.9551 22.3205 19428 2
52.9202 45.4076 20.7045 1345 1
54.1698 45.208 23.0417 1306 2
55.2951 47.0758 20.464 19426 2
56.4367 47.7361 23.24 21280 2
57.1219 44.5615 22.8786 1303 2
60.819 44.8517 20.603 20338 2
59.3054 46.7034 22.6874 2172 2
58.0545 45.8779 20.079 20346 2
60.4309 48.1527 19.7982 19481 2
57.8889 48.4987 21.1839 19470 1
65.1138 45.4676 22.2463 25875 1
62.3917 47.2316 22.1336 18534 2
65.0278 47.2797 20.2452 20344 2
23.0178 17.8245 39.4619 5506 1
66.8423 44.6279 20.383 21192 2
67.6519 46.2433 22.8535 19439 2
69.2599 46.7422 20.2496 18476 2
70.3024 48.2296 22.9735 2268 2
67.5804 48.3952 21.6329 25042 1
71.7837 45.4583 22.2866 20313 2
72.0841 47.7465 20.0375 19445 2
74.6655 46.188 20.5074 20354 2
73.5231 47.7837 22.477 25871 1
32.4325 74.7864 48.2892 8162 1
21.5271 50.0637 22.8231 63632 2
20.2213 51.4627 20.3747 53552 2
18.8571 50.8538 22.721 54461 1
23.0431 51.889 21.1697 63235 1
22.5708 49.3148 19.8287 48669 2
25.5082 51.0683 20.3224 2084 2
24.475 51.1348 23.3981 63483 2
21.9649 53.3052 23.1805 63481 2
28.8347 49.0659 20.1841 2040 1
30.6031 49.5719 22.9246 2973 2
27.4998 50.2132 22.3995 2089 2
31.2198 52.4296 21.1639 41977 1
28.6694 51.8546 19.916 40239 2
30.9314 50.1019 20.104 40237 1
34.9827 50.7524 19.838 41120 1
33.2931 50.9762 22.1277 41114 2
36.1117 49.6131 22.035 378 2
39.1325 50.5196 21.3615 18505 2
36.4592 52.3728 21.3424 428 2
43.3443 52.8651 19.4246 435 2
40.2998 52.5581 19.8561 25067 1
42.2294 50.7511 21.0865 431 2
43.9382 52.6901 22.2286 1386 1
45.4421 50.6468 20.5401 383 2
46.3681 52.7003 21.9497 438 1
46.4053 52.675 19.466 432 1
50.3374 48.7805 20.8553 1351 1
48.7152 51.2054 21.1378 3092 2
52.3874 50.0222 20.4015 436 1
51.0021 52.8598 20.2366 1392 2
52.1191 51.1711 22.7854 25001 2
55.219 50.1675 21.4138 1268 2
53.8091 52.4715 20.6786 1352 1
54.5258 52.7304 22.8537 19469 1
56.6522 52.4493 21.9041 1267 1
56.1544 51.9066 19.2791 19473 1
57.4166 50.3866 22.9927 1310 1
58.1478 51.0112 20.7227 3150 1
60.1679 49.6805 22.5437 20342 2
60.9876 52.0729 20.8557 20390 2
58.9874 52.1405 22.9811 19379 1
65.5845 49.9301 21.1696 20397 1
63.0558 49.747 20.2372 19483 2
64.7805 52.5876 21.8261 19486 2
62.9542 50.276 23.3549 20392 2
67.0778 51.941 19.6502 19482 2
70.0187 49.4857 20.5668 20352 1
68.2955 50.8587 22.3515 19488 2
70.8083 52.4044 20.8386 19489 2
74.664 49.4001 20.549 19492 1
74.7238 52.488 20.7148 18596 2
72.5059 50.2094 21.9775 19532 2
19.4567 53.4633 22.254 63500 2
20.0284 56.4263 22.2145 48680 2
20.0601 56.9048 19.1845 63468 2
18.7064 53.9355 19.2128 48674 2
21.7492 54.3694 20.1436 63634 2
23.1817 56.4256 21.1378 53557 1
24.6186 54.1052 21.7922 63188 2
24.9081 57.6183 19.4941 63184 1
25.8515 57.0243 22.5372 5799 2
26.9927 52.9266 21.5973 3022 1
27.0011 55.6876 19.9298 63479 2
28.6826 55.1559 22.2044 24954 2
33.7663 53.2779 20.4381 41981 1
34.2067 53.6683 23.2974 41170 2
30.2162 54.3372 19.4711 25023 2
31.9678 54.9897 21.7412 43152 2
35.2355 55.4649 20.7272 63057 2
39.2276 53.1897 21.9463 477 1
37.2048 55.4158 22.7594 376 2
39.1152 57.1393 21.3454 1385 2
38.3028 54.5262 19.8096 1338 2
41.5562 53.1386 22.0346 19545 1
43.0129 55.1507 22.1419 481 1
41.1717 55.1051 20.0089 429 2
43.5447 57.1699 20.2439 19607 1
40.5479 55.397 23.3378 3191 2
45.2018 55.0208 20.3376 479 2
47.1181 56.5725 21.651 1393 1
48.4311 54.2737 21.0085 1348 2
44.8327 57.2859 22.248 1387 1
45.7014 54.906 23.5602 1390 2
50.6073 53.621 22.9615 19565 1
52.7504 54.3124 21.7906 1399 1
50.8773 55.7205 21.1349 491 1
55.4943 54.5585 20.2038 20435 2
53.6184 56.9756 21.6773 1398 2
56.5609 55.019 22.7793 25887 2
54.162 55.1281 23.6813 19657 1
58.3295 53.4465 20.6618 19517 1
60.2591 54.7001 19.8724 18630 1
59.3371 54.5684 22.5005 25865 1
58.2083 56.3856 20.1888 1401 2
61.4192 55.5951 21.8232 19572 1
59.3766 57.1867 22.9509 444 2
63.0741 54.6628 20.0724 19570 2
63.7524 54.8731 22.9111 19520 1
63.9807 57.2721 20.1355 19577 1
65.7522 55.9775 21.7109 19585 1
31.3048 74.9642 33.1569 5415 2
68.2262 54.1126 21.5382 19524 2
68.5316 57.0763 20.4919 19586 2
70.8019 55.1581 20.6387 19584 1
68.1838 56.357 23.612 19626 2
70.7578 54.3597 23.4692 20444 2
72.8816 54.2783 21.3433 19533 1
73.2305 56.5944 19.7757 19535 2
71.1631 57.1306 22.418 20485 2
18.2913 61.1075 20.746 53700 2
19.7735 58.9935 21.2151 63438 1
21.1831 61.1568 21.1718 63410 1
25.1468 59.4546 21.3071 63474 1
22.6055 58.9361 20.9598 63433 2
23.8205 61.7472 20.0202 63588 2
24.5823 61.3628 23.1277 54632 2
36.3167 58.3202 21.749 19499 2
38.8056 60.283 20.5618 2288 2
36.898 60.0589 23.8322 24997 2
39.8181 59.6096 22.8832 2286 1
41.8852 57.8983 22.136 24937 2
41.3498 60.6091 20.9764 526 1
17.8331 38.7365 25.5081 63314 2
44.003 59.9613 21.0499 1440 2
46.063 58.2871 20.0607 1391 1
46.8751 59.3737 22.6674 1445 2
46.5048 60.7082 20.371 525 1
51.7226 58.5765 19.6095 534 2
48.8262 59.7587 19.8752 1395 1
48.7215 62.0018 21.5776 1446 2
49.6283 57.8582 21.8509 1447 2
50.7623 60.4567 21.3668 19616 1
55.412 57.685 19.4699 20473 2
54.3736 59.5638 21.3661 2342 1
56.5764 61.5273 19.9555 25862 1
56.247 57.7656 22.8132 448 2
55.5081 61.5237 22.2806 20518 1
61.0407 57.6911 19.8542 19575 2
57.9831 59.3621 20.8785 19618 2
17.7048 39.2031 49.9732 7531 1
60.5118 60.3236 20.568 19621 1
59.8786 59.9117 23.0422 20476 1
62.109 61.3674 22.3046 18729 2
62.5631 57.9877 22.6548 19574 2
63.0755 59.5746 20.5976 19573 1
64.8483 61.1131 21.1882 1455 1
66.1024 58.6534 21.6926 1420 2
67.2976 61.0533 19.7567 546 2
69.0449 59.5771 22.0766 20487 2
66.796 61.1894 22.6473 19625 1
70.9303 61.7628 21.9506 19632 1
74.2266 57.8932 22.5239 19593 2
74.4279 59.0445 20.2718 19635 1
71.3686 59.1241 19.9028 25902 2
72.8914 60.4137 21.5497 18692 1
71.8045 62.1589 19.6825 19589 1
19.7893 63.8349 20.7898 54635 2
18.6207 66.3518 22.4514 54678 1
17.8726 65.9287 20.2027 50596 1
24.7395 19.4946 19.5974 1021 2
75.0782 20.0353 66.8539 29537 2
22.4674 62.8325 22.2877 63141 1
22.6636 64.6381 19.9994 63411 2
24.7962 64.6516 21.7623 63144 2
39.9737 62.6232 22.5232 2328 2
43.334 62.7969 21.5965 572 1
42.5416 64.7999 23.1756 1482 2
41.4815 62.9441 19.8106 19546 2
45.6275 62.149 22.7577 1442 2
44.9955 65.0215 20.9598 18753 2
46.8506 63.3019 20.4582 579 1
47.7335 65.005 22.3434 578 2
51.0026 62.1534 23.2686 25036 1
50.5129 64.0922 20.1263 1487 2
50.3275 64.4438 22.8874 2338 1
53.3169 64.8588 22.278 2381 2
52.9411 62.0397 21.0542 19660 2
55.6349 63.5507 21.1549 19665 1
54.5389 65.6281 19.1803 583 2
58.1983 62.1331 22.1532 20521 2
57.6198 65.2776 22.2395 2430 2
58.1558 64.0056 19.6831 1453 2
60.4754 63.279 20.7363 19622 1
59.9244 64.1492 22.992 20522 1
60.3743 66.147 20.7636 25882 2
64.4283 63.298 20.0105 18779 2
65.0888 65.0131 22.2379 19624 1
62.6644 64.1625 22.461 19670 2
64.6895 62.6017 23.093 25860 1
63.331 66.0281 20.5993 25901 1
46.2222 18.1921 45.8901 18384 1
66.8014 63.5262 21.2861 19629 1
68.477 65.655 22.1847 18736 2
69.5088 63.3459 20.6268 18742 1
69.6094 65.8085 19.174 19628 2
68.6051 62.5697 22.669 20533 1
71.7527 64.4195 20.5673 1461 1
73.7266 63.0135 22.0051 19679 2
73.7773 65.7883 22.6447 21693 2
70.9661 64.179 23.1766 20527 2
20.7233 66.9294 20.721 48693 2
18.4261 68.4323 21.1926 63142 1
20.6024 69.9386 21.0062 63128 1
18.7666 70.5163 22.8122 54810 2
22.9482 66.6609 22.3736 63140 1
22.7657 68.9952 21.7577 55682 1
24.3385 67.6365 20.0688 54813 2
24.4628 70.6809 22.697 50703 1
44.2257 67.5074 23.1094 2420 2
46.9037 67.8357 21.36 1483 2
48.5878 67.7439 23.3992 1528 1
49.3367 66.5449 21.0855 19699 1
52.0199 66.9875 20.6339 632 2
49.8592 69.4611 21.4603 1531 2
51.294 67.1244 23.3173 1488 2
53.1187 69.9966 21.7343 19711 2
54.5455 68.376 19.6554 1536 1
56.6579 69.8791 20.3124 25821 2
55.1243 67.3954 22.1154 1533 2
57.2553 66.8149 19.2386 19710 2
55.6537 70.0916 23.0465 2431 1
61.2251 69.4464 21.3793 19667 2
58.5392 70.2745 22.221 2432 1
58.6779 68.0722 21.2719 2425 1
66.2046 66.1793 19.8698 19676 2
48.3083 57.1806 18.7794 18712 2
64.1821 68.6952 20.7289 19672 2
62.5934 67.0726 23.0236 19718 2
65.2159 66.9444 23.2331 20571 1
65.3238 69.3501 23.2696 21735 1
67.9278 68.4809 19.3975 21739 2
66.9317 67.8234 21.962 25856 1
69.1764 68.4576 22.0802 25881 1
69.6769 70.511 20.8968 21740 1
70.5194 68.0694 20.0182 21691 1
71.1371 66.5819 21.7226 2396 1
72.6265 68.905 21.591 2592 2
41.5234 18.0994 27.2878 22535 2
20.2323 72.6751 21.1861 63116 2
18.5123 70.8444 19.2537 54856 2
33.2509 18.1422 35.6588 3661 2
27.7058 18.3414 23.2204 1845 2
18.0156 74.2223 23.4369 54859 2
23.3021 71.4446 20.2067 63014 2
24.4952 74.0018 19.2962 3585 2
25.6296 73.2937 22.2151 3587 2
22.8079 73.263 22.2011 3538 1
28.3771 73.7139 23.2073 63178 1
27.3739 71.3695 23.2883 1383 1
56.887 72.4776 22.3528 22631 2
59.4653 71.9081 20.2709 21778 2
59.5092 74.1038 22.4822 12850 1
60.61 72.0606 23.5239 20618 2
61.6769 73.664 21.5595 25814 1
62.1079 71.7656 19.9305 21782 1
64.9546 72.7935 19.6398 20866 2
63.6059 71.4822 22.0834 21788 2
65.8972 73.2603 22.5924 21781 2
66.8067 70.479 21.4311 20824 2
67.4632 73.4674 20.4124 20827 1
68.7875 72.1608 23.0679 21737 2
70.1809 73.5147 20.5407 21745 2
25.4003 18.1573 50.5712 7347 1
73.9535 70.8327 20.3354 21785 1
71.8199 71.5867 21.5571 18741 1
74.1613 73.0853 22.3099 20834 2
18.6174 21.753 23.6873 20053 1
17.7679 19.9468 27.5567 59349 2
21.7621 22.2825 25.5084 25064 1
19.9097 19.6972 24.8991 1881 2
24.3592 21.7199 23.7291 1848 1
23.1525 20.0332 25.4968 20009 2
25.3997 18.7446 26.9065 784 2
26.314 21.5591 27.7486 2772 1
26.7726 20.8343 25.077 2717 2
28.4275 19.1452 27.2568 1847 2
28.7543 21.809 26.9767 2776 1
30.2288 20.7105 25.2029 1891 2
32.5782 19.1636 24.0839 23637 2
34.036 20.174 26.3411 987 1
34.6346 21.7252 24.3184 2726 1
36.2911 18.3376 26.3544 3659 1
35.5835 19.5416 24.2224 20120 1
38.2947 19.3788 24.6423 21910 2
38.9063 22.3974 24.7059 3657 1
36.5895 21.3976 26.2129 1900 2
38.7351 19.5374 27.9822 3663 2
40.8825 20.567 25.6046 22582 2
43.3884 22.3925 24.2203 22532 1
43.725 20.395 25.4775 21871 1
74.8328 30.1531 36.9576 22960 2
45.9737 20.4141 26.4006 12875 1
48.4633 22.0923 26.9532 2736 2
48.0351 19.9119 24.6977 23264 2
33.1963 48.9031 19.4231 2048 2
50.3384 21.4412 24.8206 21895 1
51.3223 18.3465 24.874 3670 2
51.8751 22.1793 27.1492 22570 2
50.0296 19.8116 26.9764 22528 1
55.7079 20.2394 24.3272 23127 1
54.8673 20.3268 27.2944 22564 2
53.0055 20.8119 24.5373 2785 2
57.0994 21.2462 25.8619 23632 1
56.4542 22.4672 23.408 23172 1
58.0691 18.6339 25.2343 11602 2
60.6335 19.5386 25.0574 20993 1
59.4507 21.1443 27.1457 20141 2
60.8842 22.2325 24.9936 20104 1
62.6398 19.9894 23.5832 38322 2
62.427 20.779 26.8411 25850 2
64.6851 18.3951 24.4734 12897 1
65.1367 20.7968 25.4452 11550 2
64.3513 18.722 27.3958 31025 1
67.5368 18.3217 24.4212 30802 2
69.3638 19.5363 26.4607 1659 1
68.1441 21.4356 25.0767 12867 2
67.0922 19.4418 27.6019 30814 2
66.8853 22.221 27.531 12415 1
70.4399 21.8205 26.3921 11516 1
70.813 19.2476 24.1671 22613 2
74.6959 20.1363 27.6072 12412 1
73.4812 21.0396 25.483 30808 2
71.7396 19.5865 26.8674 12506 1
70.9774 22.2913 23.3785 22672 2
30.3762 75.1274 64.4621 11707 2
19.0543 22.6909 26.3098 20051 2
19.6465 26.299 23.3395 1883 2
18.1867 24.5423 24.492 1835 1
20.3272 23.6241 23.9413 1887 1
19.8179 25.4549 26.1054 1930 1
21.6699 26.4858 27.1342 2818 1
24.5049 22.921 26.1207 24990 2
26.1042 23.7123 23.9712 1884 1
25.4765 26.4515 23.9449 1025 2
22.5813 25.0573 24.999 1886 2
24.5143 26.3445 27.0969 976 2
27.2339 24.1516 26.5106 1889 2
28.4308 22.9179 24.1367 936 1
28.6982 25.8949 23.9194 1944 2
30.0187 23.6202 25.8595 2771 1
30.8036 23.2198 23.7307 25026 1
31.7538 25.9063 25.3789 1946 2
32.5052 22.7124 25.8502 2775 2
34.2559 25.0105 26.1118 2778 1
36.4764 24.0839 24.7422 25025 2
38.9218 25.7581 26.2065 4664 2
37.0647 24.1115 27.4952 5526 1
36.2086 26.8584 26.7808 2828 2
37.1886 26.6478 24.2344 1951 1
42.9194 22.5631 27.1922 2784 2
39.3209 22.7234 27.2938 3662 2
41.142 24.1182 25.0834 23152 2
42.2851 25.7342 27.1675 3759 2
44.1287 25.1866 24.2164 2837 2
45.7794 22.6164 25.2204 4627 2
44.8762 24.5313 27.0898 21900 1
46.9814 25.7479 25.7388 2786 2
44.6688 26.9192 26.5072 2006 1
48.99 23.7709 24.1144 750 2
49.3063 26.6937 24.9611 2027 1
52.2077 24.2946 24.4915 2024 2
50.1708 24.8918 26.7546 1107 2
53.2089 24.5264 27.2075 21056 1
51.9036 26.8813 27.7683 2898 2
55.1123 26.0921 25.5466 40027 2
55.0331 23.0336 25.5414 30857 2
56.3416 24.3566 27.3149 2028 1
57.9904 26.7248 24.6913 19234 2
61.0692 25.3517 24.1965 713 2
58.3689 23.7608 25.3314 20098 2
60.0929 25.782 26.509 20201 1
61.4137 23.576 26.9186 20096 1
63.4727 23.428 24.5709 20100 2
62.986 26.0504 26.6749 19684 2
65.972 25.6596 24.5117 25879 2
64.0783 23.2595 27.5884 25880 2
66.2609 23.3455 25.5194 12414 1
69.631 24.0675 27.3276 20160 1
68.8021 24.4559 24.7934 19196 2
69.2026 26.9113 26.8798 21054 2
66.9353 24.9257 27.8339 12419 2
74.6067 25.9305 25.9015 20163 2
72.5037 23.7449 26.6011 1651 2
73.4779 23.6598 24.0317 20157 1
71.7328 26.0807 25.3269 20113 2
20.4718 29.7654 23.6041 63546 2
18.0307 28.7456 23.5208 63548 1
19.9499 28.1281 26.1681 2763 2
18.8051 30.8102 26.1901 1936 2
21.5295 30.2607 26.0255 1929 1
23.2988 30.8567 23.6786 1018 2
22.8329 28.0744 24.6737 1885 2
25.4211 29.6243 25.7665 1941 2
22.9732 28.9958 27.7743 2859 2
27.4851 27.0361 26.4463 2769 2
27.4073 28.5542 24.3591 25059 1
28.4622 30.3845 26.5298 2817 2
29.9611 28.0421 25.0369 1949 1
34.3264 27.1272 24.0544 25028 2
32.1999 28.6398 25.163 2872 1
34.2267 29.807 25.4404 24982 1
33.7396 27.6522 26.7606 24984 1
32.6893 31.0575 27.4656 1993 2
31.1637 28.3783 27.5988 2864 2
36.8109 29.2694 24.8023 2831 2
39.2824 28.6425 25.9893 2873 1
38.2344 30.1602 27.647 2862 1
39.8229 26.666 23.7876 1958 2
39.9864 29.7454 23.71 40975 2
42.9215 28.9089 27.5487 2789 1
42.3396 27.9067 25.2195 2069 2
43.9092 30.653 25.672 3713 1
41.0522 30.84 26.7187 2054 2
46.1059 30.8787 24.1638 2942 1
45.3215 28.2177 24.2734 41849 2
47.8218 29.1294 25.6255 2072 2
45.6996 29.1023 27.57 2984 2
48.5773 27.0843 27.4958 2893 1
51.6511 26.9962 24.5879 42770 1
49.8552 28.4877 23.54 2026 1
50.3887 28.5941 26.0736 3666 1
50.9939 31.0585 24.6747 25056 2
51.5087 30.1924 27.3298 1156 1
55.8321 28.9383 24.1383 1973 2
53.1788 29.0843 25.5533 23129 2
55.3106 28.5227 27.1547 2071 1
53.9522 30.8849 27.6543 2029 1
57.8087 29.2693 26.3146 20145 2
60.8436 28.1637 25.2847 25878 2
63.5745 27.1566 23.5453 20151 2
63.3357 28.651 25.7175 20209 1
65.6838 27.4704 26.9455 20207 2
65.5565 29.8165 24.8718 21002 2
63.1408 30.9855 25.6823 20257 1
68.6301 30.156 23.5152 20158 2
67.8033 27.895 24.8492 20216 1
67.8983 29.7651 27.0323 21044 2
70.4016 28.611 24.9997 20159 1
70.8357 29.3838 27.0386 20149 1
72.8096 28.5901 24.6186 18336 1
72.4904 30.7376 25.8829 19249 1
58.2787 74.9319 52.2815 26217 1
71.2367 31.3628 23.586 19296 1
73.8273 73.1288 73.4677 15179 2
29.3545 33.3426 19.0844 1031 2
21.1699 31.7654 27.7491 1982 1
18.3398 34.4874 23.7032 2808 1
20.5368 32.8011 24.8093 1934 2
21.3804 34.5895 27.408 1977 2
19.0432 33.1432 27.4489 2811 1
24.3204 33.3028 23.7675 1983 1
22.5908 35.046 24.6003 1981 2
23.4823 32.3058 26.2966 2863 2
25.8847 34.7162 25.655 2042 2
26.1785 32.0821 25.5038 1986 1
30.7991 33.7338 23.835 2916 1
26.9053 32.9965 27.5957 63326 1
28.2541 32.7934 24.7595 1938 1
30.2141 32.4814 27.1103 3749 1
29.1656 34.8475 26.0813 1990 2
31.4157 31.1612 24.7918 1950 2
32.0545 34.0677 26.5184 2908 2
34.5323 34.2417 25.1535 3754 1
34.5224 33.3417 27.3666 21059 1
36.4984 33.2519 23.6318 1080 1
35.4968 31.8142 25.6991 4713 1
38.3894 31.8694 25.3561 41895 2
37.2091 34.5334 26.0471 2931 2
40.2319 34.5077 26.4188 284 2
41.2604 32.7526 24.0225 2004 2
42.6866 35.032 24.6343 2944 1
43.2028 33.1495 26.42 1149 2
44.4073 32.9331 23.6188 43700 2
46.2506 32.0527 26.6445 24957 2
46.8549 33.8506 24.3655 1209 1
45.4476 34.6571 25.9635 21169 1
48.0019 34.8649 27.2805 2953 2
48.2458 31.7191 24.7841 2023 1
49.4977 33.9708 24.793 2117 2
52.3332 32.2718 26.6275 2902 1
49.568 31.9981 27.413 1160 2
52.6406 34.0849 24.5772 20248 2
51.5346 34.6369 27.6797 21177 2
56.3192 31.0265 27.5114 21089 1
55.0634 31.7488 25.227 19326 2
55.4773 34.5185 25.1995 2123 1
60.3227 31.1876 26.2417 19238 2
57.5286 33.6004 23.9691 19235 1
57.7768 33.1729 26.803 20255 2
57.8712 31.5559 24.8555 18373 1
59.8863 35.125 25.311 20155 2
60.7485 33.7004 27.1187 25877 1
64.1888 32.3034 23.9188 20210 1
63.0084 34.1091 25.3671 20256 2
65.044 32.5448 26.3306 19344 1
65.9121 33.8732 24.4364 18372 1
65.1853 34.7409 27.5988 20302 1
67.1288 31.9519 25.3336 20153 1
69.9568 34.7311 26.5889 20211 1
68.3809 34.0866 25.0574 19347 1
70.0337 31.8636 26.0613 1129 2
54.456 17.8711 71.8043 3648 2
74.6368 32.129 24.6868 19346 2
71.9667 34.063 24.707 19350 2
73.208 33.0381 26.9184 21104 1
67.9261 74.0448 74.5017 29892 2
19.8077 36.2654 25.0795 63540 2
20.0191 38.9554 24.2032 63318 1
65.4822 71.6193 73.9946 26534 2
22.1452 38.5092 25.5791 2911 2
23.7292 36.2905 26.363 1072 1
25.0183 37.6631 24.3768 1985 2
25.7389 37.5466 27.7476 2047 2
28.4427 37.2338 27.3957 2914 1
27.5026 36.8104 25.0345 2041 1
27.7675 39.5606 25.7292 2918 2
30.2612 37.8087 25.2728 2870 2
32.3978 35.9115 24.1914 1997 2
34.7938 36.4964 26.5287 1996 2
32.7576 39.1109 27.0086 3847 1
33.3823 38.9395 24.4582 20156 2
32.2061 36.7552 26.9593 3807 1
35.8042 39.009 25.4631 2052 1
35.153 39.3872 27.7896 3840 1
37.5628 38.4795 23.2646 2061 2
35.7554 36.3347 23.6581 1995 2
38.0353 37.3925 26.1868 20236 2
40.6189 36.7603 24.4141 41994 2
43.0914 37.7409 23.4802 2066 1
43.4055 36.457 26.6802 4669 2
41.8791 39.271 25.4248 3037 2
44.4175 38.6569 25.4578 2111 1
45.3298 36.2454 23.732 2995 2
46.6264 38.9452 24.9197 25017 1
48.1059 36.8198 24.9268 2070 1
46.229 36.8854 26.3495 2954 1
46.145 39.8975 27.1031 2068 1
50.6971 39.3308 23.518 2074 2
48.8052 38.8437 26.921 2114 2
50.7751 36.8 25.6797 3047 2
52.4193 39.2834 25.5673 20296 1
53.6778 35.9023 26.6563 2997 1
53.4572 37.1087 24.1797 25053 2