ITEM: TIMESTEP    
75000     
ITEM: NUMBER OF ATOMS  
77888     
ITEM: BOX BOUNDS pp pp pp
17.607 132.393    
18.0782 131.922    
21.9972 128.003    
ITEM: ATOMS x y z id type
19.3639 20.4326 23.0844 72779 2
21.0584 21.351 25.0322 977 2
20.7359 18.3161 24.8002 1839 2
17.7628 34.967 47.4537 62555 2
23.2984 19.4865 24.8539 23170 1
25.0828 20.8703 23.8242 72824 1
23.5808 21.7305 25.6312 1848 1
25.7145 18.6174 24.0177 22740 1
25.3878 19.9133 26.1356 22628 1
22.3979 20.4995 22.2595 72830 2
29.0787 21.2182 25.5601 20062 2
27.9378 19.8051 22.9363 22548 2
30.4985 18.5732 24.6181 23216 2
30.4836 21.1436 23.106 2719 1
27.7204 18.3444 26.0538 1845 2
32.7728 19.7958 23.0484 24988 2
31.8833 20.996 25.193 43709 1
34.9042 20.5881 24.0204 1851 2
33.1477 18.6819 26.2661 23637 2
37.5026 20.8853 22.5099 22537 2
37.3634 21.7656 25.4786 1899 2
39.6036 19.3512 22.5698 1904 1
37.3107 18.4897 24.4892 22536 2
39.5968 22.092 23.3082 2790 1
40.1956 20.3319 25.1548 1854 2
42.6751 19.2833 25.2053 23128 2
42.672 22.5972 24.4247 40934 2
41.569 20.7937 22.8245 43666 1
44.4067 20.3925 23.1296 1099 2
47.5871 20.5489 23.1005 40834 2
45.7465 19.7054 25.747 22576 2
47.7149 21.6064 25.7004 1908 1
50.3238 18.6467 22.7214 38521 2
50.2019 21.4205 22.9897 40893 1
49.5073 19.7135 25.4631 22529 2
52.2765 18.8491 25.2639 22574 1
51.6979 21.5523 25.6833 1110 2
52.8583 20.5281 22.9901 38365 2
56.6504 20.5705 24.872 13500 1
55.4536 19.1892 23.108 21944 1
54.2894 19.995 25.2292 12513 1
60.6241 21.5533 23.4032 31298 2
59.546 19.0399 25.0926 19184 2
59.2294 21.6851 26.1251 31285 2
60.7275 19.1103 22.558 31004 1
57.8523 20.0426 22.5473 38509 2
64.8312 18.8401 25.307 30999 2
65.4053 21.9663 25.1129 21892 2
63.4321 20.7337 23.6633 31021 1
65.1702 19.4348 22.4003 30371 1
62.2469 18.6189 24.5545 31001 1
17.6766 19.0914 29.5621 59349 2
70.3322 18.5353 25.683 38366 1
67.5208 20.0306 23.6407 31023 2
69.5311 21.3411 25.6851 19245 2
73.1 74.9388 71.1041 3564 1
71.5677 20.2399 24.2112 30996 2
73.9699 21.6207 25.4366 12413 2
73.3378 18.4048 25.5343 21403 2
24.221 74.7902 23.6364 63005 2
21.103 24.1551 24.4552 25062 1
19.2704 25.6122 23.7648 970 1
18.4899 23.1596 24.3016 1928 2
21.7424 26.2795 23.3834 52493 1
20.6396 26.3123 26.1659 1885 2
17.9576 53.426 37.0695 62855 1
23.4074 25.7573 25.2947 1888 1
23.6107 23.6207 23.4636 25024 2
25.9762 25.4239 24.9993 1945 1
24.4905 23.9406 26.442 1884 1
26.4759 22.7255 25.0487 1846 2
29.4146 23.1847 23.6913 1895 1
28.6637 24.6591 26.134 1944 2
27.5404 25.0937 22.9473 1943 2
30.6681 25.8298 24.2902 40920 2
27.0428 22.3415 22.3858 978 1
31.0327 23.0852 25.9749 25026 1
32.6668 25.0139 25.8374 25060 1
32.7369 23.0825 23.7666 989 2
34.3975 26.1637 23.9591 1035 2
34.9936 23.873 26.2416 25027 2
35.9497 23.5206 23.233 40928 2
37.2411 25.6648 24.5886 2729 2
39.6768 23.8506 25.1014 3770 2
17.7021 37.4853 25.3462 63539 2
74.738 30.5096 72.7724 27457 1
40.037 26.4285 24.0716 2836 1
41.5679 24.9497 23.3478 1956 1
42.2441 24.8689 26.039 2782 1
43.9476 25.0429 23.6172 41801 1
45.5503 22.7949 24.8227 43705 2
46.428 25.6684 23.3897 40939 2
47.6546 24.472 25.8874 1153 1
44.9566 25.5993 26.3136 2837 2
49.3028 23.297 24.3789 40989 2
50.5046 26.0434 25.063 2020 2
52.0777 23.7294 23.4021 19180 2
50.4363 74.846 72.2359 14280 1
54.7417 22.6217 25.1928 23176 2
53.3547 25.6627 24.7128 23642 1
55.2626 25.0437 26.0269 40030 1
55.2945 25.0238 22.992 40025 2
60.8438 74.9333 33.9269 23539 2
57.5399 25.9952 24.8898 18330 2
57.8006 22.9531 23.8721 38629 2
59.8643 24.5511 25.6324 20148 1
60.4773 24.6598 23.0207 199 2
37.4565 74.8702 32.7513 5421 2
62.8622 26.544 23.4011 19229 2
62.5598 23.066 24.9324 19285 2
65.2195 25.0891 25.6241 20106 2
64.836 24.0665 23.2993 18327 1
69.9681 22.5394 22.5866 31019 2
67.6172 22.7088 23.8309 31293 1
69.7877 24.535 24.7355 1065 2
67.7771 26.2 24.9669 19241 1
67.3231 24.7873 22.51 31294 2
72.1024 23.1832 24.0062 12457 1
72.0174 26.2311 24.3567 30290 1
73.8941 24.6647 24.7904 43162 1
73.4086 25.3199 22.3954 44079 1
74.5087 22.7528 22.5353 39972 2
75.2894 66.6875 45.532 25357 1
19.7639 28.4684 24.1817 1933 2
18.1081 27.5201 25.842 63548 1
21.602 30.8735 24.2677 1071 2
71.7553 71.5258 71.4212 14222 1
17.7355 45.8229 67.9386 13042 2
24.877 26.6238 22.7899 25061 2
22.602 28.0959 24.7618 63545 1
24.6858 29.6061 24.0157 1023 2
25.135 27.6193 26.3381 1025 2
46.7832 18.2588 36.84 3723 1
29.2627 27.5365 22.2186 41796 1
26.923 30.0087 24.9955 40916 1
27.8893 27.5733 24.8781 39954 2
28.722 30.126 23.6109 19240 1
26.9856 28.5118 22.4746 986 1
30.5608 28.6396 24.351 983 1
29.2636 30.1306 26.6194 1947 2
32.4537 28.0755 26.0368 41845 2
33.3153 29.4138 23.3279 41885 2
33.6043 30.8412 25.8186 1033 1
75.1635 57.8964 65.6457 28444 1
35.8208 28.6544 25.3149 40926 2
38.0453 30.5635 25.6381 2010 1
38.5512 30.0767 23.4509 2000 1
38.4858 28.2653 25.1664 1083 1
38.3862 27.6008 22.7083 2779 1
42.6472 27.2962 25.0065 41842 2
41.0018 28.7185 22.908 1907 2
43.5635 30.1435 24.253 43703 2
40.6891 29.696 25.9584 40975 2
43.561 27.7512 22.2562 1897 1
40.9903 31.2256 23.721 42701 1
47.8235 27.2888 26.2083 40935 2
45.0888 27.6321 24.423 40985 1
46.3783 30.1729 23.8585 41032 2
47.8618 27.9507 23.6709 41894 1
47.0959 31.2032 26.1098 2942 1
17.8053 25.048 72.5833 49841 1
52.4442 27.0005 22.8193 1165 2
49.0613 29.6456 24.9207 1954 1
50.1922 28.5576 23.0339 42717 1
51.4774 28.7776 24.9582 40996 1
50.8509 31.1349 26.4166 42715 1
51.4387 30.9804 23.4944 1163 2
54.7474 27.8689 25.6245 20144 2
56.2416 27.9451 22.5177 19382 2
53.6323 29.4776 23.6833 1105 1
55.9276 30.884 23.1888 248 2
53.7901 31.0184 25.7832 1164 2
56.743 29.4683 26.6056 1973 2
59.0194 27.0449 22.4862 19227 1
60.3051 26.9292 24.4992 246 1
58.3816 29.0129 24.497 19231 2
61.3231 29.5611 23.2594 2792 2
60.1768 30.9485 26.4636 200 2
65.6295 26.857 23.7724 18337 1
61.8462 28.5976 25.6874 19243 1
64.4659 29.209 23.8176 19242 2
63.6204 31.0323 25.8992 20214 2
68.4423 27.787 22.6072 30998 2
70.0258 27.6945 25.8526 19186 2
67.2334 28.9167 25.3506 12515 2
69.6509 30.2078 23.9003 43818 1
66.8382 31.0455 23.111 30833 2
74.7709 27.2485 23.4581 30993 2
71.4211 29.9172 25.679 19294 1
73.606 30.0332 24.2547 43804 1
71.5435 28.5006 22.9803 18339 2
72.9154 28.0243 25.4717 18336 1
18.3368 31.291 24.1151 63536 2
18.5403 34.4243 24.324 1017 2
21.7139 34.1902 23.7122 1060 2
20.4096 32.3321 22.5667 74584 1
21.0263 35.1422 26.1605 63543 1
20.253 32.5175 26.3092 1934 2
24.1013 32.7587 24.884 63681 2
24.545 34.7977 23.289 43702 1
23.3231 35.6941 25.8158 1069 1
31.496 52.3735 22.2973 2040 1
26.5617 33.6849 24.3675 1070 1
28.3197 32.1271 24.9872 40965 1
28.7693 34.251 22.9133 1031 2
26.663 31.5472 22.5459 40917 2
29.6979 33.9317 25.5977 2916 1
31.2112 31.4857 24.4402 1940 2
34.461 33.8695 25.6096 24974 2
33.5213 32.3866 23.5761 984 1
31.8372 34.4561 23.7141 1029 2
35.8086 31.6087 24.1223 41893 2
38.8062 32.6756 24.2564 1199 2
36.8065 34.533 23.5692 41937 2
39.0505 35.277 26.0358 20283 2
36.8651 33.5275 26.1807 1080 1
39.2884 35.4572 23.0447 19202 1
40.8891 34.5173 24.2335 2002 1
43.2099 33.0341 23.0347 41848 2
41.5237 32.7642 25.9774 2004 2
43.7067 35.27 24.8956 2990 2
46.7132 35.0946 24.3364 2067 2
44.9982 32.778 25.5426 43700 2
46.0902 32.5677 22.4 197 2
48.8512 32.6396 24.5558 237 2
49.6028 35.4188 24.213 41035 1
51.5649 33.7032 25.8193 2022 2
50.9197 33.7458 23.064 291 1
49.0267 34.9847 26.549 236 1
34.687 75.0256 31.0323 23585 1
54.7775 33.5833 26.2045 249 1
56.2389 34.9716 24.7028 19334 1
53.7559 33.3658 23.5861 20251 2
57.1076 32.3353 25.5599 2077 2
59.2228 31.4735 24.0049 1109 1
59.6326 33.7617 26.1843 19233 1
58.2158 33.7377 23.1126 241 2
61.9339 35.0694 25.2776 43165 1
40.4555 55.8374 22.0586 1343 2
61.7276 32.6985 24.2127 1112 2
64.573 32.3185 23.3045 18380 1
63.9036 35.4565 23.3309 19232 2
64.2434 33.9691 25.7142 19341 1
65.8581 35.8745 25.9268 19339 1
66.4758 32.3147 25.63 19289 2
66.2979 34.0723 23.6893 19288 1
69.1241 32.8708 24.4976 20162 1
68.018 34.4861 25.5413 19293 1
69.9825 35.7361 23.822 19349 2
74.1695 32.4223 22.8099 19297 1
71.7574 32.2673 24.1258 19246 2
73.4763 34.7789 23.6787 43988 2
74.5201 32.6815 25.5783 19301 2
20.3106 36.8654 24.5138 63542 1
18.9678 37.6062 22.7735 63669 1
19.6116 39.7643 24.3202 63537 2
21.9597 38.5643 25.8515 1979 2
74.7475 26.7241 50.0939 28188 1
63.1378 18.0538 22.3919 31316 1
22.8527 37.2319 23.4551 1988 2
25.3788 39.1095 24.1686 2036 2
25.8739 36.3342 25.1205 1075 2
24.9122 36.9755 22.1163 2034 1
29.7505 36.553 24.9238 1074 2
27.5361 37.0438 22.7689 41015 2
29.7356 39.339 23.8239 1028 2
28.0377 38.1558 26.3738 1122 2
27.3414 40.0285 22.2655 41016 2
34.6091 36.6951 24.3686 2829 2
32.2196 37.5809 24.3247 1079 1
55.9768 74.6776 59.2789 27106 2
33.0355 36.3007 22.2995 41936 1
35.2601 39.5965 24.182 1998 2
37.8644 37.6811 24.3867 41068 2
41.6793 35.7177 26.4377 2944 1
40.7475 37.0304 24.3833 40988 1
42.8688 38.6489 23.1475 1204 2
42.6779 37.7556 25.7606 2066 1
40.2159 39.7521 24.6523 41984 2
17.8249 21.7928 34.9024 49611 1
45.1668 37.9249 25.0809 41031 1
47.971 37.6561 25.2771 330 2
46.5852 38.7913 22.9291 286 2
44.8335 36.8266 23.0088 1159 1
52.088 36.1448 23.3384 1155 2
50.9774 36.9129 26.1048 1162 2
50.1971 39.1647 24.5989 290 1
49.4448 37.2733 22.4013 40108 2
53.691 35.7565 25.5125 1208 1
52.9029 39.1446 24.6034 18473 2
56.5694 37.0845 25.9676 19276 1
55.2354 37.3744 23.6236 20297 2
55.1741 39.3811 26.0845 388 1
60.3803 39.0158 22.6474 18381 2
58.9045 35.9875 24.8893 2121 2
57.53 39.6326 24.6513 18430 2
61.425 37.0396 24.4325 1119 1
59.7225 38.7243 25.813 18376 1
62.3736 39.2244 25.7156 19286 2
63.5476 36.5842 25.7493 20213 1
63.0927 38.215 23.1397 19236 1
65.3964 38.2671 24.8174 19281 2
64.9861 39.8003 22.7 44031 1
66.9661 36.2815 23.6809 20215 1
67.9035 39.8317 25.2306 163 1
68.5629 38.0303 23.769 19290 1
70.4627 38.3645 22.3208 18383 1
68.4655 37.0918 26.3301 19291 2
74.3944 38.9111 23.1262 18489 1
70.7404 38.8946 25.1069 18437 2
72.103 36.4044 25.3722 25899 1
73.8971 38.3072 25.5902 19352 2
72.5072 37.4096 23.1498 18386 1
19.4914 42.4144 25.5292 63648 1
20.3083 42.3399 23.3238 63678 1
21.6572 41.5106 26.0344 63529 1
21.5306 44.3404 25.6416 63528 2
32.2213 18.234 32.3226 21878 1
22.717 40.2322 23.8893 2045 1
24.1013 40.5405 26.0892 2039 1
22.7141 42.5906 23.9748 21093 1
25.0863 42.1141 22.9878 41066 2
24.5551 43.0596 26.0247 63091 2
26.5572 44.2432 24.6188 2969 1
27.2174 41.291 25.3882 2037 2
30.1998 41.6356 25.7143 25055 2
28.3795 42.7839 23.1593 43701 2
28.8124 44.1611 26.15 2971 2
32.6326 39.9802 24.5913 41941 1
31.0151 41.7333 22.5519 41883 2
33.5664 42.4732 24.2478 2051 2
34.4677 44.3313 25.9252 41940 1
37.7326 41.1699 24.8071 1202 1
38.9881 43.3736 25.3887 41078 1
35.9774 41.802 22.8246 2056 1
36.7807 43.9741 24.1411 41939 2
38.0806 40.2934 22.3652 41072 2
39.9076 42.4652 22.9768 3133 2
43.7037 40.3337 25.2562 25047 1
42.4373 41.3487 23.4029 1200 1
41.6503 42.5068 25.6455 1198 2
42.4055 44.1404 23.8533 1249 1
49.0273 75.2932 66.4258 13405 2
44.4421 42.9581 25.3633 1251 2
44.8807 40.7877 23.1931 25049 1
46.5029 40.4457 25.3587 2119 2
46.521 42.9598 23.3672 1254 2
47.961 43.7132 25.9357 1253 2
48.9564 41.0204 22.6927 41038 2
49.2531 41.4302 25.2381 2113 1
51.5708 42.0506 24.2985 289 2
56.5926 44.5192 22.4576 1350 2
53.7846 43.9458 23.4174 1307 1
53.4307 41.5158 26.0622 20299 1
55.1801 41.481 23.9301 18427 2
54.8772 43.5209 25.7011 39218 1
66.2935 18.2631 28.3068 12539 2
57.5837 43.182 25.326 19337 2
60.276 41.5689 24.4124 20206 2
59.5274 44.1205 23.7403 1255 1
58.3038 41.7372 22.6195 19282 2
61.868 43.8792 25.5138 20298 2
61.6635 43.4496 22.9686 18479 1
62.6205 40.4647 23.4483 18379 1
64.3885 41.5967 25.3453 19338 2
64.0203 44.013 23.9058 18435 1
66.3843 44.0793 22.8515 19384 1
66.1853 39.611 26.8653 20260 1
66.7083 41.5971 23.5623 18433 2
69.8507 41.025 23.1758 18439 2
68.3305 43.2299 24.3872 19396 1
69.8531 41.7011 25.7918 19340 1
70.731 43.5706 24.3509 19389 1
72.2754 39.9264 23.1523 18443 1
72.0195 41.5842 24.8114 20353 1
73.4047 43.7715 24.3757 2141 1
74.5192 41.2077 24.8133 20361 2
17.7531 59.7528 65.6858 11368 1
21.527 44.5841 22.1361 48570 2
18.9018 45.0115 24.0514 63282 2
19.0293 47.255 25.7292 63280 1
21.3125 47.0018 23.7604 53468 2
24.0436 45.152 23.5828 63650 2
23.5913 47.4557 24.9889 2088 1
17.6708 32.4429 42.2527 62785 2
26.5137 47.1002 24.3558 41064 2
28.5321 45.6881 23.4436 2049 1
29.9499 47.8784 24.0065 41946 2
28.7646 46.8708 25.9871 1131 1
31.211 44.7671 24.1971 2090 2
17.679 58.4586 57.5942 10500 2
33.7582 45.9679 23.6988 2157 2
32.4883 48.0126 25.1676 2922 1
31.2676 46.3502 26.2785 2046 1
35.8387 46.2226 25.5509 3952 1
39.221 45.4354 22.8212 41124 2
36.7196 46.5891 23.436 41990 1
38.6426 46.8094 25.4021 2159 2
29.516 18.2999 32.0868 21884 2
40.7739 45.184 25.5439 2156 1
41.7733 46.7278 23.3573 1293 2
41.6728 47.3033 25.6819 1292 1
43.8082 45.8016 25.1794 2162 1
45.0134 47.6844 23.4156 2169 2
46.3651 45.3262 24.5349 381 1
46.1852 47.2476 25.7246 21219 1
44.6507 44.9869 22.9015 1257 1
47.9925 46.9606 24.0117 385 1
49.2233 44.428 23.4263 340 2
51.8364 44.7565 25.219 25040 2
51.6855 44.8628 22.3248 2120 1
49.4851 46.3588 26.0548 2208 2
52.0503 46.9515 23.6445 1345 1
57.0177 75.1153 63.7533 25593 1
56.0631 45.9673 24.7387 1306 2
56.1035 48.3064 22.4784 19426 2
54.1553 48.3906 24.8395 19428 2
54.1787 46.1853 22.4998 1264 1
59.1203 45.8419 25.8885 1303 2
58.6592 47.0702 22.7488 20346 2
61.985 46.7698 26.4093 259 1
60.4602 48.642 24.8265 2172 2
61.6868 46.0877 23.4699 20338 2
63.8807 45.8742 25.2867 20304 1
64.8673 46.4983 22.8704 19386 2
66.34 44.8774 25.4817 21284 2
66.2443 47.5815 24.9065 25875 1
68.6158 45.959 23.7703 21192 2
70.0227 48.0191 25.9608 19439 2
69.3685 44.5316 26.612 20308 2
70.2923 48.1436 22.6645 18476 2
71.7996 46.0049 24.5758 19436 2
73.6565 45.5711 22.7908 18542 1
60.8987 35.3725 22.259 1111 2
73.6619 48.1816 23.4853 19445 2
19.5183 49.3787 24.345 63274 2
18.3762 52.1688 24.0305 54461 1
20.876 51.8961 23.0942 63632 2
20.9573 52.6948 25.8491 63060 2
25.1255 49.2213 24.4004 63527 1
22.7129 49.3946 22.9784 48669 2
25.5021 51.4756 25.7364 63483 2
22.5435 50.1097 26.1424 48858 2
25.3334 51.1214 22.5331 2085 2
23.3253 51.7695 24.2078 63486 1
27.6807 49.5553 22.8324 41062 1
27.7966 49.5361 25.5076 63281 2
29.66 51.3076 23.777 24951 2
27.6794 53.2138 24.2858 2089 2
34.8858 48.8246 24.2748 2095 2
32.2899 49.4178 23.139 41115 1
19.7272 17.9214 53.32 7293 2
31.7822 50.622 25.2386 40237 1
34.9414 51.006 25.7819 41120 1
33.755 52.1773 23.702 2048 2
37.495 48.7833 23.1841 2155 1
37.0233 51.9089 24.096 378 2
37.1724 49.6919 25.4311 63642 1
38.8742 50.9268 26.5971 1336 1
40.1058 49.3746 24.4602 1294 2
41.5628 52.6362 22.2443 431 2
39.9034 52.4676 24.5798 1339 2
42.7844 49.8527 24.6666 2200 2
48.0969 48.8205 25.496 2214 1
47.9014 49.3606 22.7617 41079 2
44.5652 51.7616 22.6326 383 2
45.748 50.0449 25.2483 1295 2
46.8658 52.0522 23.7696 2240 1
48.2302 51.1675 25.2816 394 1
50.3895 48.9059 24.5791 2213 2
49.4669 52.1594 23.0548 3092 2
52.4378 50.8896 23.8983 25001 2
52.5291 49.8503 26.4232 1301 1
66.0504 74.6229 55.6807 27161 1
57.281 48.6664 25.6564 21280 2
55.5585 51.2286 24.0439 1268 2
53.2737 52.854 26.0546 25885 2
57.9786 51.4337 25.324 1310 1
58.5098 49.7652 23.3846 19470 1
59.8773 51.6999 23.844 3150 1
62.8714 48.5576 22.5612 1274 1
63.6432 48.5907 25.1789 18534 2
65.6055 49.5511 22.6656 20344 2
62.5597 51.126 23.8507 19483 2
65.1686 50.8541 24.9695 20397 1
64.8841 52.1714 22.7434 18526 1
68.192 48.9988 24.1105 25042 1
67.6472 51.8846 23.6904 19482 2
70.0582 51.078 23.1766 19488 2
66.9455 49.8874 26.525 20351 2
69.435 50.6642 25.6542 1224 1
71.9758 49.8718 25.4971 2268 2
72.7274 52.2418 23.7467 19532 2
74.7382 50.8148 24.6761 25871 1
73.9153 53.275 26.1191 20447 1
19.2724 54.7672 24.1224 63500 2
21.0721 57.1911 24.8715 48680 2
73.2571 18.1635 56.3983 29068 1
24.9058 53.7949 23.7581 63235 1
22.4156 54.4462 24.0679 63481 2
23.7268 56.4895 22.7582 63634 2
25.4551 55.027 26.0883 63188 2
23.6736 57.2236 25.8887 63485 1
26.338 56.8288 23.8 63479 2
28.6315 55.7558 23.4719 3022 1
28.4979 56.045 26.0574 2195 2
30.6549 57.0857 22.7417 25023 2
66.2766 75.0567 45.0687 26222 2
30.7452 54.0844 24.6537 40239 2
33.4323 54.8242 24.6519 41977 1
33.9737 57.1395 23.4667 428 2
31.754 56.7726 25.8387 2982 2
35.6447 54.6133 22.8601 41126 2
37.4881 54.5473 24.8443 477 1
35.8462 56.8227 25.7072 376 2
37.3886 57.1854 23.0462 1338 2
38.6681 54.0629 22.6684 25067 1
39.1116 56.4048 25.543 3191 2
35.5032 53.7414 26.3602 41170 2
43.3194 52.9075 25.2707 1388 2
43.5396 55.0784 22.9411 435 2
41.4218 54.8047 24.3486 19545 1
42.1686 57.1343 23.7784 481 1
43.1874 56.0725 26.0792 2289 2
41.3062 54.1421 26.6019 2201 1
45.8062 54.1923 23.845 1386 1
47.3988 53.6074 22.2174 438 1
48.0625 56.0443 22.4855 1348 2
45.7103 55.6365 25.6545 1347 1
48.426 54.1493 25.1531 1297 2
50.1496 56.868 24.8264 20463 2
51.2422 53.3688 24.2282 19565 1
50.9817 55.2695 22.253 1392 2
52.5126 55.3322 24.4615 1399 1
55.1869 54.1899 24.6718 19469 1
54.3861 56.4102 22.8626 20435 2
55.245 56.4646 25.7375 19657 1
53.4896 53.6568 23.0266 1352 1
57.1023 55.6601 22.8363 19517 1
55.6768 53.5813 22.2166 19473 1
57.4504 53.3147 23.8775 1267 1
59.3151 53.4811 25.8127 19379 1
59.9572 54.5801 23.1108 20390 2
58.3266 55.9371 25.4317 25887 2
59.0846 57.1398 23.1086 18630 1
61.0224 56.6327 24.6941 25865 1
62.0459 53.7624 25.0965 19476 2
65.4032 53.6231 25.2073 19486 2
63.8233 56.2562 24.125 19570 2
66.182 54.5781 22.3949 19581 2
63.0356 54.0995 22.2492 18633 2
67.7921 54.8603 24.4491 19585 1
70.1771 54.0103 24.8423 19524 2
69.2116 56.7888 22.8161 19586 2
69.1594 57.0377 25.9636 19626 2
68.8865 54.1067 22.3739 19523 1
37.6827 18.2249 51.7721 18954 2
72.6902 54.6493 24.7745 20402 1
73.8377 56.4852 23.2708 20444 2
71.3819 56.9767 24.5741 20488 1
74.735 55.6955 25.8917 20446 1
19.0734 60.3827 22.6638 53700 2
21.4425 59.6298 23.5352 63438 1
19.504 60.1237 25.2345 63040 1
18.2592 57.9745 24.0457 63187 2
22.1422 59.8851 26.1916 63183 2
24.3529 59.3365 24.0605 63433 2
22.8544 61.4992 22.635 63598 1
24.4583 62.2194 24.8423 54632 2
26.576 60.1263 25.3273 63042 1
28.8568 58.6807 24.6516 63272 2
29.3469 59.9115 22.2324 53557 1
27.0248 59.4183 22.7841 63410 1
29.2084 61.1117 25.9971 48774 1
33.5916 58.9152 25.6112 24941 1
32.002 59.6893 23.0217 1382 2
31.2886 59.8653 25.6373 3012 1
33.8473 61.7558 25.9102 3025 2
35.3043 59.9943 23.7621 24999 2
37.9465 59.2359 25.4055 1385 2
37.8478 60.1121 22.6695 426 1
36.6396 61.7467 25.5044 20458 1
39.1907 61.9601 24.3018 24937 2
43.011 59.4815 22.4423 479 2
40.1203 58.8126 22.7833 429 2
40.7525 58.494 25.6983 2333 1
41.5126 60.6172 24.5735 19607 1
43.1473 58.9965 25.2265 1387 1
45.2133 57.4524 23.8226 1390 2
47.4252 57.0733 24.933 1393 1
45.4953 60.5331 24.2621 1445 2
48.0671 59.2303 23.0934 1447 2
48.3054 59.2033 26.0295 2294 1
51.6732 57.7412 22.9598 491 1
50.7223 60.0875 24.5548 19569 2
53.0287 58.058 25.3189 1398 2
55.9774 58.8155 24.6405 448 2
53.3416 60.6413 25.4449 24996 1
53.8411 59.7055 22.6774 20473 2
29.7143 18.0674 54.9394 18002 2
57.6606 61.0835 23.2871 19618 2
59.1653 58.9115 25.1218 444 2
60.5422 61.0075 24.0543 20476 1
61.9946 58.8845 24.0287 19572 1
64.5129 59.1535 24.728 19520 1
63.0987 61.0871 23.0146 19580 2
62.597 60.7463 26.1367 19623 2
74.7921 49.4174 49.237 24018 2
66.5942 57.3885 24.2052 1420 2
69.2171 59.8371 23.768 20487 2
67.5244 59.4099 25.6793 20483 1
66.1538 60.8492 23.6836 546 2
20.983 18.5159 40.6639 4553 2
18.0459 18.3748 41.6032 22717 1
74.4825 61.011 25.6096 20497 2
72.4408 59.6684 23.5385 20485 2
73.3455 58.0936 25.9097 20489 2
71.4837 61.6527 24.9777 21396 1
71.6322 57.5734 22.2976 19584 1
17.8626 62.297 25.0959 55544 2
21.0268 62.3618 24.4842 63425 2
20.8543 65.2067 23.5464 54635 2
18.1845 65.2553 24.4458 55588 1
19.0935 63.371 22.7174 53783 1
23.5197 64.0347 22.5123 63600 2
25.8807 64.9948 24.6151 63028 2
23.1213 64.5732 25.2912 48872 1
33.8347 18.199 43.5128 5513 2
27.4139 61.9051 23.8414 63227 2
28.7047 64.7624 22.7917 5799 2
29.1311 64.2542 25.7499 63176 2
27.0083 62.9122 26.2953 63043 1
30.3968 62.2185 23.8773 24954 2
33.5084 62.471 23.1516 19499 2
31.8974 63.9596 25.1385 2284 1
33.427 64.9846 23.6488 24853 1
64.9023 74.8386 48.022 26172 2
42.255 18.3283 22.1481 23153 2
36.8042 62.5317 22.7696 2288 2
38.6384 65.1989 23.9668 2328 2
35.6623 64.185 25.2068 3184 2
38.4902 66.5142 26.5736 2332 1
38.6132 63.8746 26.6311 1384 2
42.0596 61.881 22.7298 25906 1
40.5467 63.664 22.412 2286 1
41.7111 63.5152 25.2955 1439 2
44.1308 62.9867 24.0618 1391 1
43.7782 65.7553 24.372 1442 2
41.1969 66.2778 23.998 572 1
48.2032 61.7117 24.6087 1444 1
47.155 62.1477 22.5072 1395 1
46.6395 64.1519 24.8109 1443 2
48.647 65.8854 22.925 1446 2
45.7822 66.3693 22.8544 525 1
44.3272 63.8688 26.3654 1438 1
49.9548 62.7128 22.8212 19660 2
49.4856 64.4391 24.8801 25036 1
51.8919 65.7324 23.5348 2381 2
51.8843 63.2077 25.5127 19617 2
52.6144 61.9046 23.4638 2342 1
51.3804 66.1213 26.3426 2388 2
55.3798 61.7818 24.6241 25862 1
54.1843 64.0231 23.904 19665 1
56.1615 63.8757 25.7095 20518 1
53.6712 64.9804 26.4439 1490 1
56.9701 64.2414 23.1331 20521 2
60.1377 65.5222 23.8845 19670 2
57.6567 65.7302 25.2957 20522 1
59.0297 63.0467 25.2354 20525 2
60.0964 62.911 22.1643 18729 2
61.8304 63.2445 24.7907 25860 1
64.5505 63.4765 24.1781 19625 1
62.5313 64.0597 22.6065 1455 1
65.1677 65.5833 23.0501 2354 1
63.0001 65.4375 24.8992 19624 1
66.0142 65.7266 25.7816 21433 2
66.9372 63.7288 22.7506 602 1
66.8135 63.1538 25.1463 20533 1
67.9053 65.9256 23.8003 18736 2
69.6864 63.2257 23.9712 20527 2
74.8218 21.0699 52.1835 5119 2
70.311 65.8187 22.6185 1461 1
74.3819 65.1732 24.3246 22590 1
73.2005 62.7835 23.4108 19679 2
71.7998 65.3346 24.8223 21693 2
17.5677 69.3298 24.4746 63016 1
18.4546 66.973 26.4023 50692 1
18.1094 67.4527 22.8354 50596 1
19.7504 67.8015 24.5136 54678 1
19.6437 69.5809 22.2562 54856 2
21.6925 67.7761 23.0164 63142 1
22.1427 70.3486 23.0243 63128 1
21.3374 66.4336 26.4978 63177 2
24.3061 69.0695 22.0266 48693 2
23.5908 66.5753 23.678 63141 1
23.0072 68.7583 25.1066 54677 2
25.531 67.8455 24.5501 63140 1
25.6964 70.2397 24.5831 63124 1
24.3576 66.4122 26.3832 55685 1
28.1211 67.0158 25.1112 63144 2
26.9355 68.9308 22.7779 55682 1
30.1828 69.1495 23.9029 63139 2
28.9084 67.3009 22.4673 1383 1
28.2133 70.4447 26.1273 4452 2
31.1807 66.2898 24.5058 63037 2
33.7971 67.4555 23.6824 48819 1
32.6545 69.5732 22.9576 4458 1
32.9102 69.5029 25.7224 4408 2
33.769 66.5906 26.0714 5806 2
34.9279 69.8954 23.9328 21775 1
36.3558 70.3091 25.7164 3598 1
36.4667 67.5857 24.7718 2373 2
37.9043 70.2413 23.3116 4204 2
39.1205 70.8328 26.0644 2419 1
39.7058 68.3406 25.1138 1482 2
32.9969 39.0812 21.9592 1135 2
40.7767 68.6131 22.523 526 1
42.4419 68.6962 24.4381 579 1
44.2695 70.6133 26.3251 1483 2
44.0595 70.4463 23.634 530 1
45.486 68.2151 24.645 578 2
48.1967 66.6426 26.0285 19614 2
48.3626 68.9574 24.388 1528 1
46.5359 70.7685 23.8188 3300 1
48.6314 70.4386 22.7021 1535 1
50.3118 67.5564 24.129 2338 1
51.1948 70.1043 23.6143 1488 2
52.4945 68.0829 24.6519 2427 1
50.2978 69.2377 26.4616 24995 2
55.0555 66.7012 24.6663 2430 2
53.842 70.1943 25.5541 1533 2
56.1654 69.3475 23.7765 2425 1
53.8985 68.6785 22.1998 19710 2
61.0307 68.9156 23.1441 19718 2
58.9917 67.6432 25.5216 20569 1
58.6284 69.8435 24.7551 25855 1
57.8181 67.4088 22.9253 25882 2
61.7832 67.485 25.2004 20571 1
62.6338 66.5024 22.2507 18779 2
64.2533 68.0322 24.4211 20529 2
63.1095 70.0701 25.8066 21735 1
66.0737 68.2153 22.3331 21739 2
70.276 67.6302 24.5326 25816 1
69.425 69.5314 22.9957 18741 1
67.7352 68.6157 25.1859 22589 2
75.0167 34.0301 50.1202 29213 1
71.6247 70.247 22.3352 21785 1
71.0149 67.901 22.0823 2396 1
73.3775 68.2739 23.8552 2592 2
71.7018 67.6097 26.204 25853 1
74.4226 66.5997 26.5512 22592 2
20.4531 70.4898 25.2131 54810 2
18.8344 73.3552 25.1922 54859 2
18.0627 71.5147 23.1985 63105 1
21.5053 72.9043 23.4071 63116 2
18.6811 74.3564 22.3875 63363 2
61.563 18.378 50.5112 7564 1
23.3014 71.5868 25.0648 63010 1
26.6594 72.491 25.2484 48908 1
24.4994 71.9648 22.6542 63118 2
26.6977 74.0779 22.7595 3538 1
28.8151 72.9854 24.7873 4507 1
27.753 71.4342 22.9435 63125 2
29.1036 74.0422 22.437 24854 1
30.9301 71.9333 22.6031 3587 2
33.7705 71.7131 23.3554 4512 1
30.9721 71.7935 25.6432 3543 2
34.4541 72.2112 25.9486 3599 2
32.6773 74.13 24.1203 3594 2
30.6579 74.2197 26.627 3601 1
35.9334 73.688 23.7334 3602 2
39.1748 73.2288 23.11 22511 2
37.573 72.3964 25.1651 3597 1
39.9038 73.5971 26.0973 4520 2
41.28 71.2882 24.1858 2374 2
43.1473 73.6247 25.46 1532 2
42.5053 73.2407 22.2988 577 2
41.0376 74.9877 24.014 19699 1
45.2904 73.0904 23.4283 1487 2
46.2023 73.2802 26.4281 2424 2
71.4727 54.6906 22.1203 19489 2
61.428 74.768 47.2901 26214 2
48.662 72.6627 24.5432 2426 2
51.1423 71.7914 25.5654 2431 1
51.1949 73.9747 24.4929 21736 1
49.9193 47.2677 21.9138 1305 2
53.2593 74.7519 22.8621 22631 2
54.3187 71.6207 22.6728 25821 2
55.2685 74.1547 25.19 21729 1
56.5925 71.6123 25.1022 21476 2
56.1799 73.5002 23.1321 2432 1
53.2552 72.7657 24.9485 21526 1
58.6697 73.9345 24.6231 20618 2
60.9054 71.5986 24.4816 20619 2
60.9981 74.0165 22.4289 21788 2
58.4162 71.5709 22.525 19667 2
58.8947 71.7454 26.3338 20616 1
63.2186 70.6438 23.4196 25856 1
65.6588 70.8933 24.3102 20824 2
63.8193 73.358 23.8272 22588 2
64.8091 71.8195 26.5321 25778 1
67.1941 70.6895 22.0631 21740 1
69.2158 75.0252 24.6882 21787 2
68.8106 71.4742 24.8006 21737 2
66.9703 73.5741 22.8919 21781 2
69.9933 72.6861 22.304 22688 2
66.8139 73.5283 26.0514 22638 2
71.3665 70.354 25.4049 22642 2
71.3348 73.2787 25.0529 25817 1
73.194 72.1929 23.5215 20834 2
73.6501 72.1559 26.3548 21791 2
19.3049 19.792 27.207 1881 2
20.9944 19.2104 30.0257 2716 2
21.4768 21.5051 28.0871 25064 1
19.2987 21.8832 29.7659 20051 2
72.6417 72.9834 73.1953 15179 2
23.9381 18.0997 30.1836 2718 1
25.8566 18.6084 28.5545 784 2
22.8571 19.4537 27.5409 20009 2
24.6135 21.9864 28.1257 24990 2
26.6166 21.0127 30.0431 2772 1
27.4815 21.5672 27.6092 2717 2
28.6995 18.9198 29.2071 1847 2
29.6237 21.45 29.5613 2776 1
33.996 21.5166 26.3395 2726 1
31.057 20.3771 27.5604 1891 2
33.9272 20.472 28.7687 987 1
31.7225 20.3344 30.6792 3653 2
35.7189 19.7853 26.6576 20120 1
36.0932 18.7456 28.9998 3659 1
38.3821 19.3677 27.3358 21910 2
39.2356 21.9019 27.6644 3657 1
36.4185 21.773 28.5923 1900 2
38.6465 19.4147 30.3964 3663 2
39.3627 22.2501 30.2026 3662 2
41.5555 22.2646 26.7725 3665 1
17.5147 60.701 38.8802 57406 1
41.4537 20.426 28.475 22582 2
43.8095 21.1073 26.6886 21871 1
43.4871 22.2472 29.4811 2784 2
45.1689 20.1582 28.3747 12875 1
48.2746 19.9866 27.9418 23264 2
50.7831 18.1759 27.7057 3670 2
50.5953 20.905 28.2826 21895 1
51.7211 21.8988 30.6777 22570 2
49.8295 19.6317 30.1915 22528 1
52.3017 19.4199 29.4979 21898 1
55.7708 21.1393 27.062 23127 1
53.2681 21.632 27.975 2785 2
55.0398 20.3674 30.0994 22564 2
54.0622 18.5882 27.4187 22533 2
57.2368 18.9849 26.9501 11602 2
61.4573 18.4695 29.7993 22527 2
57.8909 21.5003 28.3299 23632 1
58.1498 19.4528 30.1583 21893 2
59.7819 19.6387 27.9142 20993 1
60.3349 21.6811 29.3543 20141 2
62.1586 20.5895 26.6148 38322 2
63.4854 18.7766 28.1228 12512 1
64.776 20.6146 27.4129 12897 1
63.5198 20.9795 29.7214 25850 2
67.0477 20.3186 26.6266 20998 1
66.6926 21.5247 29.1217 11550 2
68.9661 19.6727 28.1906 30802 2
70.6189 20.7419 29.9168 1659 1
70.7238 18.2185 60.422 4681 2
71.8526 20.2285 27.5004 22613 2
74.7132 21.6851 28.6748 30808 2
73.0304 19.9894 30.0193 12506 1
73.9794 18.2499 28.3205 12895 2
19.1669 22.4641 26.7986 1887 1
75.1895 33.4314 31.127 21110 1
19.6846 24.1011 28.3847 1930 1
21.1397 25.8476 28.8016 2818 1
21.8444 23.7265 26.8539 1886 2
22.1585 23.3589 29.9215 1841 2
23.754 25.8016 28.6044 976 2
25.3435 23.5592 30.4139 2770 2
25.4487 26.4194 30.3637 21001 1
26.4513 24.7395 27.8851 1889 2
29.7264 23.0391 27.977 936 1
29.165 25.1804 28.8932 2771 1
28.0386 23.3714 29.8777 24989 1
27.5257 25.6033 30.7222 2764 1
32.7035 23.0027 28.2564 2775 2
31.554 25.7929 28.1152 1946 2
33.512 25.6949 30.4729 2825 2
34.6976 26.5225 27.3515 25028 2
35.1258 24.2167 28.8228 2778 1
30.945 23.4126 30.8137 2724 2
37.8281 24.3616 27.5844 25025 2
36.8935 23.7495 30.1739 5526 1
36.7299 26.4451 29.5774 2828 2
37.4358 26.8615 27.0063 1951 1
40.266 26.6244 26.7419 1958 2
43.7064 23.4936 27.2465 22532 1
40.8277 24.1999 28.4132 23152 2
42.9757 25.9009 28.7785 3759 2
48.7379 22.4891 30.023 2736 2
46.3772 22.4801 27.9089 4627 2
45.0695 24.544 29.191 21900 1
47.5047 25.2268 28.4862 2786 2
46.0798 26.1909 30.6393 3720 1
49.6983 23.1908 27.3984 750 2
52.4534 24.3449 26.8056 2024 2
50.3078 26.1886 28.3171 1107 2
50.5401 24.5555 30.3223 710 1
52.9135 24.4022 29.4349 21056 1
57.2083 23.7169 26.4007 23172 1
54.1422 26.2174 28.1157 42770 1
56.9091 26.4086 27.9166 40027 2
55.7375 23.4826 28.6383 30857 2
54.9958 25.7315 30.7772 1056 2
54.1326 22.8085 30.6962 2851 1
57.6943 22.3585 30.4007 12459 1
57.6349 24.9491 30.4028 2028 1
59.0694 24.2926 28.3591 20098 2
61.4534 25.9235 28.7745 20201 1
61.3502 23.293 27.3019 20104 1
62.3501 25.888 26.3736 713 2
62.303 23.8329 29.6304 20096 1
64.0546 23.1224 27.6258 20100 2
64.2048 25.9336 29.1024 19684 2
65.0307 23.4892 30.4811 25880 2
67.5504 23.4317 26.3073 31002 2
69.4004 22.7349 28.7689 12867 2
66.4412 24.2493 28.4528 12414 1
69.94 25.6797 27.748 19196 2
68.1718 24.9123 30.3952 12419 2
72.3328 22.516 29.7948 11516 1
72.3228 25.9449 26.6871 19299 1
70.9778 24.9093 30.2744 20160 1
71.6647 23.1174 26.8543 22672 2
74.1741 23.7605 26.9451 20157 1
73.2769 25.1019 29.1164 1651 2
17.5596 30.0958 27.1179 1936 2
20.5331 29.4294 27.0928 63546 2
18.629 26.9913 28.5344 2763 2
19.1798 29.8907 29.5126 1982 1
21.716 28.4388 29.8799 2859 2
23.5636 30.4965 27.0292 1018 2
22.5603 27.7612 27.3611 1929 1
24.7379 28.8491 29.2768 1941 2
25.1661 31.3428 29.2213 1986 1
26.5917 29.6528 27.3328 25059 1
29.8757 27.2475 26.7408 1949 1
27.7274 27.4767 28.4635 2769 2
30.686 28.7675 29.0889 2864 2
27.8502 30.7074 29.2693 2817 2
27.2756 28.0234 31.1758 1935 1
32.2928 30.1326 27.6149 2872 1
34.7736 29.4376 27.6864 24982 1
33.2632 28.2394 29.0607 24984 1
32.8005 30.9881 30.3015 1993 2
35.4516 29.3268 30.409 3752 2