ITEM: TIMESTEP    
15000     
ITEM: NUMBER OF ATOMS  
77888     
ITEM: BOX BOUNDS pp pp pp
17.607 132.393    
18.0782 131.922    
18.5592 131.441    
ITEM: ATOMS x y z id type
20.5026 18.6328 21.3101 1839 2
19.0245 20.8869 20.3573 72779 2
21.5698 21.5533 22.1828 977 2
20.2011 18.315 18.7185 20011 1
22.088 20.41 19.4085 72830 2
23.3722 19.0177 22.0132 23170 1
25.8014 19.3312 21.7984 22628 1
24.5072 21.1014 20.4535 72824 1
24.9283 19.1108 18.6814 1021 2
27.2187 21.7178 21.215 1846 2
29.8468 20.4859 22.073 20062 2
29.609 21.0255 19.4598 2719 1
27.7196 18.7464 19.7806 22548 2
17.77 28.3966 27.9831 56033 2
32.2644 19.9255 19.8834 24988 2
32.7688 21.6425 22.2302 43709 1
35.1073 19.8657 21.3534 1851 2
37.4533 20.6751 18.8759 22537 2
37.2803 21.8973 21.6544 1899 2
39.4938 22.187 19.6482 2790 1
39.1208 18.3366 18.5425 1904 1
39.5945 19.7487 21.08 1854 2
42.1293 21.6168 19.8235 40934 2
42.0851 18.5322 19.1197 23153 2
42.7748 19.7209 22.0989 23128 2
40.8755 21.744 22.3938 3665 1
44.856 19.8839 19.5506 1099 2
47.7058 19.9606 20.5102 40834 2
44.9283 22.335 21.6086 43705 2
45.6086 19.1387 22.6473 22576 2
49.8093 21.9707 19.5006 40893 1
50.9563 20.1558 21.4401 22529 2
52.8664 18.3481 19.4573 2787 2
54.2502 21.1073 21.0287 23176 2
56.7915 19.6667 21.2507 13500 1
54.4749 18.5557 21.7447 12513 1
56.0792 22.0535 22.9122 23172 1
56.64 22.4478 20.0751 38629 2
74.8092 69.1432 35.8676 23501 1
58.7876 21.2951 22.0239 31285 2
61.0542 20.2496 19.9859 31298 2
59.1735 18.2992 21.4935 19184 2
55.7618 18.3364 19.3433 21944 1
64.4774 20.9909 20.2596 21892 2
62.9247 18.7389 18.8952 31021 1
63.811 21.2282 22.8056 20998 1
50.3407 60.3427 18.7659 530 1
61.6538 22.6248 21.6153 19285 2
66.8804 18.8698 19.389 31023 2
68.4828 21.0347 20.9945 19245 2
17.5869 63.1266 32.263 56598 1
69.6447 18.2616 18.8056 30315 1
66.9892 19.0266 22.8723 30802 2
45.2113 18.0925 62.4753 4590 2
74.1394 20.4317 19.4166 31289 2
73.1823 18.9621 22.268 21403 2
71.2338 20.0592 20.5224 30996 2
73.2103 22.2083 21.5919 12413 2
71.9424 22.3398 19.2459 12457 1
21.1233 24.2209 21.1228 25062 1
19.5133 25.3654 19.648 970 1
21.9641 25.5034 19.279 52493 1
17.9751 23.6259 21.3978 1928 2
48.4681 18.1293 72.44 16028 2
23.9075 23.6847 21.8526 25024 2
25.4628 23.2334 19.4406 926 1
22.9222 23.1028 19.435 1942 1
22.5565 26.1933 21.8758 1888 1
24.5729 26.2559 19.8101 25061 2
25.3051 26.2478 23.0489 1025 2
26.746 24.7845 21.0671 1945 1
29.1307 23.9134 21.773 1895 1
29.9177 26.2717 20.0323 40920 2
28.3128 23.3975 18.9937 1943 2
26.1728 23.2831 23.2394 1884 1
31.1311 25.3738 22.5426 25060 1
31.3558 23.2758 20.2137 989 2
32.9233 26.1028 20.5982 1035 2
34.542 22.7402 20.34 40928 2
33.8407 24.3963 23.0351 25027 2
30.9388 22.9071 23.0921 25026 1
36.3754 25.2548 20.9839 2729 2
38.9898 26.2567 20.4726 2836 1
39.4643 23.9862 21.6778 3770 2
37.9539 24.0538 18.6336 43667 2
35.1958 26.4352 18.6276 40922 1
41.1083 24.5355 19.5515 1956 1
42.4342 23.703 21.8056 2782 1
43.4216 24.0152 19.7058 41801 1
42.7938 26.5092 19.1181 1897 1
41.72 26.6365 21.7543 41842 2
47.9813 23.3569 20.8879 40989 2
45.2577 25.5635 20.4865 40939 2
45.8288 22.796 18.7407 38643 2
48.3933 26.0901 19.4469 23205 2
46.4154 24.5582 22.8853 1153 1
47.2623 27.0641 22.4808 40935 2
51.3964 22.8492 21.6085 1110 2
50.133 25.6772 22.0704 2020 2
51.2973 24.5688 19.0926 19180 2
53.2713 25.9562 21.6803 20144 2
53.7267 23.6355 20.3714 23642 1
54.0857 23.5689 22.8592 40030 1
56.4645 24.8705 21.9614 18330 2
55.006 26.4234 19.2663 19382 2
59.0371 24.0788 21.5596 20148 1
58.6328 25.7632 19.743 19227 1
59.0422 26.5098 22.1412 246 1
61.3264 25.3928 20.3204 19229 2
59.4417 23.1058 18.9015 199 2
62.4135 22.8907 19.1351 30803 1
64.4048 24.4788 20.8816 20106 2
65.7231 26.4238 19.4751 18337 1
66.3903 22.5812 22.2481 31002 2
69.763 23.7511 20.5439 1065 2
67.3186 25.1069 21.2255 19241 1
68.4626 26.6817 19.1841 30998 2
74.615 59.3557 27.0704 21399 2
69.651 26.6765 21.9908 19186 2
71.1146 25.959 19.7087 30290 1
72.7165 24.3894 20.0452 43162 1
71.8035 24.5666 22.4322 19299 1
20.5153 27.6442 20.371 1933 2
21.4047 30.5894 20.1484 1071 2
18.2443 29.5787 20.5668 63536 2
20.2871 29.4618 22.8899 63546 2
23.1025 28.4509 21.2863 63545 1
24.9579 29.8351 19.7952 1023 2
25.2459 28.9089 22.5445 40916 1
23.1101 30.7327 22.7901 1018 2
27.163 27.8897 20.7973 39954 2
30.0878 28.9705 19.4726 983 1
27.7399 30.4294 19.8451 40965 1
30.6604 28.2629 22.197 41845 2
27.86 29.8623 22.9836 1947 2
32.8466 29.7658 20.2348 41885 2
34.6013 30.4073 22.5032 2010 1
35.2355 28.129 20.7732 40926 2
32.2428 30.4065 22.8033 1033 1
37.314 29.6096 19.4023 2000 1
37.8474 28.3633 21.3808 1083 1
37.4358 27.1352 19.036 2779 1
40.0168 28.732 19.8748 1907 2
41.1246 30.9254 21.0916 42701 1
43.0021 29.4466 19.6919 2001 2
43.057 30.366 22.7163 43703 2
44.2756 27.9416 21.379 40985 1
45.6479 30.7088 20.9903 41032 2
46.3718 28.2955 20.0683 41894 1
47.9131 29.722 22.4539 1954 1
48.5012 30.6169 19.1442 41898 2
27.2072 18.0797 71.652 10011 1
48.7226 28.3055 20.6779 42717 1
50.3038 30.1443 21.4481 42715 1
51.3085 27.7059 20.1601 1165 2
52.2263 28.767 22.4942 40996 1
52.1575 30.7872 19.5705 1163 2
54.0051 28.8534 20.7778 1105 1
56.8594 28.0644 21.0063 19231 2
55.5294 30.3645 19.1967 248 2
53.5699 31.0751 22.5565 1164 2
59.2926 29.5015 22.5726 200 2
59.9836 28.271 19.7419 2792 2
58.5838 30.3671 20.0024 1109 1
61.4975 30.9741 19.839 1112 2
61.1074 27.5888 21.9986 19243 1
63.553 27.7227 20.0395 19242 2
64.9408 30.3622 21.1124 19289 2
62.4138 29.6525 22.7666 20214 2
66.5412 27.6592 21.7728 12515 2
68.7529 29.1047 20.5059 43818 1
68.593 29.8982 23.3214 20158 2
72.7235 26.8868 21.692 1076 2
70.8667 29.1583 21.9365 19294 1
73.5182 29.8636 22.1507 19300 2
73.0261 30.9187 19.6237 19297 1
73.8768 28.6349 19.6975 43804 1
71.2144 28.5866 19.3043 18339 2
18.964 32.366 21.2777 1017 2
21.7498 32.9342 21.7591 1980 1
20.837 33.9351 19.1311 1060 2
20.2771 34.8603 21.971 63543 1
18.2244 34.7193 20.5401 1121 1
47.9299 30.0051 74.9261 27581 2
26.0042 31.7985 21.8843 20152 2
23.611 32.7512 20.0237 63681 2
23.0481 35.2555 21.2026 1069 1
25.7853 35.0021 22.0681 1075 2
26.2095 32.7857 19.4718 1070 1
24.6332 35.0646 19.3275 43702 1
23.9717 33.186 23.0019 1983 1
30.0632 31.4455 21.3319 1940 2
28.1758 33.4297 21.1016 1989 1
30.6507 34.2862 20.197 1029 2
30.5824 33.6868 23.0575 2916 1
31.2708 31.6016 19.0643 41022 1
33.1759 32.9793 22.0697 24974 2
33.0881 33.1321 19.3401 984 1
35.2845 31.3786 20.1411 41893 2
38.1949 31.2527 21.4088 1199 2
35.9081 34.2158 20.6163 41937 2
38.4228 33.9452 19.6738 19202 1
38.4529 34.4898 22.3855 20283 2
36.1799 32.4928 22.7218 1080 1
40.4067 33.2257 20.9497 2002 1
43.2404 32.6008 19.95 41848 2
42.4819 34.9367 21.5354 2990 2
43.8492 35.425 19.2843 1159 1
40.9277 34.7584 18.7148 41024 2
40.4393 31.6732 18.702 40978 2
46.0985 34.4704 20.566 2067 2
47.826 35.1881 22.4317 236 1
48.3094 32.2166 21.5991 237 2
49.1214 34.5086 20.4968 41035 1
51.3118 33.0271 21.7316 2022 2
50.2963 32.9692 18.9151 291 1
51.4485 35.3201 19.4311 1155 2
53.0845 35.1785 21.6705 1208 1
56.6629 31.3432 21.9833 2077 2
54.8331 33.6707 22.6784 249 1
56.5453 34.7047 20.3842 19334 1
54.2033 33.3042 20.1365 20251 2
57.8907 32.7594 19.1315 241 2
58.8047 34.8148 22.0009 2121 2
59.3265 32.0439 21.4962 19233 1
60.8554 33.8672 20.564 43165 1
59.1334 35.3112 19.3279 1119 1
61.744 34.8435 22.6318 20213 1
65.9652 31.7966 19.0311 19288 1
65.4421 35.2858 19.7648 20215 1
63.146 33.0417 21.318 19341 1
65.5032 33.3861 21.4709 19339 1
62.9869 35.2245 20.026 19236 1
67.6128 31.4066 20.7336 20162 1
70.274 31.3692 20.1718 19246 2
67.7901 34.0064 19.7802 19349 2
69.1809 33.0006 22.4937 19295 2
70.6162 34.2921 20.398 25899 1
67.1975 35.7287 22.3458 19291 2
72.5366 32.9521 21.7554 19301 2
19.7277 36.671 19.8374 63542 1
18.3249 37.0155 22.0918 63539 2
63.6444 33.1219 18.6359 19232 2
21.5593 37.3638 21.8961 1979 2
22.365 36.4957 18.9768 1988 2
24.6544 37.632 20.7726 2036 2
22.2858 39.1695 20.0725 2045 1
23.1615 39.4397 22.48 2039 1
28.876 35.5969 22.455 1074 2
27.3022 35.4095 19.5065 41015 2
29.6297 37.3723 19.8868 1028 2
27.0248 38.6836 18.9262 41016 2
27.2519 38.1292 22.0043 1122 2
30.0033 39.7152 22.1809 25055 2
33.254 35.8149 20.5226 2829 2
31.6382 37.7938 21.5891 1079 1
34.3938 38.5 21.384 1998 2
34.5442 39.6261 18.9189 41071 1
32.3332 40.0655 20.3383 41941 1
37.3176 36.8946 20.2555 41068 2
39.496 39.9356 18.9501 42706 1
39.8501 39.1463 21.4732 41984 2
39.9456 36.236 21.0097 40988 1
42.4903 37.9155 20.4467 1204 2
42.4798 40.0116 22.2018 25047 1
43.9745 40.2384 20.272 25049 1
44.5477 38.8147 22.6367 41031 1
45.5241 37.6898 20.274 286 2
47.8924 37.9437 22.0238 330 2
47.7119 40.0438 19.2209 41038 2
48.2998 36.5767 18.9136 40108 2
50.4628 36.1389 22.2566 1162 2
49.9729 38.3666 20.4145 290 1
52.6172 38.078 20.867 18473 2
55.8744 35.9758 22.3693 19276 1
54.6382 36.2903 19.6672 20297 2
55.3773 38.5113 21.8662 388 1
61.0717 37.0004 21.0904 19286 2
57.5352 37.4853 20.7457 18430 2
61.5502 39.4279 19.4577 18379 1
59.4837 39.8324 21.1272 20206 2
64.3071 35.9293 22.3549 19281 2
63.8304 37.9802 19.8231 18433 2
63.018 39.491 22.3752 19338 2
66.1944 39.3931 21.9221 20305 2
66.445 37.3476 20.2816 163 1
69.4027 36.628 19.9865 18437 2
69.0732 39.7515 19.9709 18439 2
68.4515 38.164 22.144 19340 1
70.1775 36.0216 22.9627 19345 2
72.4121 36.3102 21.0993 19352 2
71.0307 38.584 21.4206 20353 1
73.2779 39.8603 20.1595 20361 2
73.309 38.764 23.1119 19402 2
21.3143 18.2481 56.4173 9074 1
63.2816 18.3803 53.3764 7577 1
19.8976 39.9868 20.9999 63537 2
20.4013 44.0035 19.2367 48570 2
18.1091 42.062 21.0648 63648 1
20.4873 43.143 22.1374 63528 2
74.8628 63.6615 47.1771 25257 2
22.1727 41.2543 21.1604 21093 1
24.7002 40.5602 20.2035 41066 2
23.3414 43.7751 20.6717 63650 2
25.6827 42.7035 21.604 2969 1
25.7046 40.4947 23.0976 2037 2
29.9991 40.353 18.8349 41883 2
27.6386 41.0885 20.5251 43701 2
28.021 43.6841 21.216 2049 1
30.7614 42.5939 20.8508 2090 2
32.4088 43.9849 19.2211 24950 1
34.2399 42.1729 20.2188 2051 2
36.9101 40.0831 20.073 41072 2
37.9547 41.1942 22.2178 1202 1
36.7402 43.1279 19.2458 42033 1
36.3052 43.818 22.0512 41939 2
39.2688 42.6962 20.1936 3133 2
38.8729 44.0199 22.6643 2156 1
41.5245 41.08 20.163 1200 1
41.8512 43.4179 19.4335 1249 1
43.5809 42.7673 21.4661 1251 2
19.1612 18.3911 29.0204 2714 1
46.2708 40.7627 22.1285 2119 2
46.5708 43.6327 22.5567 1253 2
45.717 42.3206 19.3558 1254 2
48.678 43.1341 20.1846 340 2
49.1341 40.6238 21.3909 2113 1
51.063 40.7032 19.5923 289 2
51.9837 43.4881 21.0074 25040 2
52.3336 40.8533 22.1181 20299 1
54.5372 40.3234 20.0026 18427 2
54.31 42.4852 21.7556 39218 1
55.6902 43.4807 19.1643 1350 2
57.4727 44.2556 22.3991 1303 2
56.8899 41.3184 21.6626 19337 2
53.2301 42.441 18.7896 1307 1
60.455 41.767 19.352 18479 1
60.0735 42.6217 22.1956 20298 2
58.5066 43.0379 19.8098 1255 1
25.8217 18.2184 45.3857 6395 2
62.5677 43.9477 21.7961 20304 1
62.4474 41.5127 20.7542 18435 1
63.7961 43.8084 19.4642 19386 2
64.85 40.6927 19.944 19384 1
65.0244 42.5364 21.9528 21284 2
68.5383 40.936 22.2015 19389 1
67.1728 41.7422 20.086 19396 1
69.5274 43.1368 20.3251 19436 2
67.7518 43.4484 22.7219 20308 2
71.3604 41.1893 21.252 2141 1
73.1566 43.2362 19.9813 18488 2
73.868 41.8011 22.6632 19447 2
62.4321 70.9436 19.2495 20865 2
19.9887 46.6119 19.1195 53549 1
18.1149 44.8164 21.2589 63282 2
21.6222 46.4104 21.3862 53468 2
18.6615 47.8921 21.1609 63274 2
24.7614 46.9712 20.8435 2085 2
23.6332 45.3564 23.0826 2088 1
22.0552 48.8744 19.2299 48669 2
26.174 44.963 19.7675 41064 2
30.4351 48.0869 19.6333 2922 1
27.9837 46.5466 22.2456 24951 2
27.555 47.6752 19.7913 2040 1
29.6315 45.4592 19.4297 41946 2
29.7735 44.2959 22.808 1131 1
30.8656 46.1533 21.7403 2046 1
32.9778 44.5477 21.9408 2157 2
35.0467 45.487 19.5509 41070 2
32.2658 46.4912 19.7093 41115 1
34.3355 47.9651 20.1225 2092 1
33.0412 47.8051 22.5552 2095 2
38.0567 45.6371 20.3605 41124 2
38.0723 47.9353 21.6284 2155 1
35.779 46.9544 21.6469 41990 1
36.7615 48.1802 18.9938 41077 2
39.7759 47.9573 19.5725 1248 2
41.0089 45.1742 21.3409 1293 2
40.8042 48.1953 22.4089 1294 2
43.2245 45.4371 19.7214 43750 1
43.7305 47.8958 20.9993 2169 2
43.9486 45.5604 22.2658 2162 1
45.4234 44.8531 20.3774 1257 1
47.6524 45.366 19.6172 381 1
47.0255 47.7766 20.9928 41079 2
48.7504 45.668 22.1331 385 1
50.0934 48.4177 22.266 394 1
50.4759 45.9866 20.2169 1305 2
50.6139 48.7249 19.8341 1351 1
53.2693 45.5652 19.7843 1345 1
52.9079 47.8503 21.2378 19428 2
54.5666 45.0693 21.989 1306 2
55.3177 47.1243 19.2864 19426 2
56.2922 47.4617 22.2893 21280 2
60.6959 44.9499 20.0245 20338 2
59.3777 46.5218 22.2102 2172 2
57.7342 45.5539 19.7196 20346 2
60.5891 48.241 19.2919 19481 2
58.1 48.3508 20.3477 19470 1
64.9968 45.3307 21.4567 25875 1
63.185 46.5687 19.044 1274 1
62.6042 46.838 21.6479 18534 2
65.6395 47.6873 19.9573 20344 2
66.8324 44.5322 19.7843 21192 2
67.8279 48.702 20.9017 25042 1
67.5208 46.3956 22.3956 19439 2
69.3171 46.3389 20.035 18476 2
70.2237 47.9662 22.6525 2268 2
71.6949 45.2543 21.8323 20313 2
72.2715 47.4832 19.3548 19445 2
74.727 45.8114 20.2354 20354 2
73.1032 47.6905 21.9131 25871 1
18.8874 52.2749 21.2742 63500 2
20.6056 49.9072 22.063 63632 2
20.7147 51.861 19.1287 63634 2
17.6949 39.0595 49.6726 7531 1
21.9429 52.8888 22.2665 63481 2
23.2067 48.9988 21.9435 63527 1
25.0345 49.6999 19.5379 2084 2
22.7058 51.0655 20.615 63235 1
25.066 52.4942 20.6677 63188 2
30.2359 48.8075 22.0979 2973 2
27.1897 49.9234 21.6517 2089 2
28.137 52.9671 20.202 24954 2
29.9967 50.9704 20.3951 41977 1
26.8439 52.5736 22.5749 3022 1
34.7844 50.3118 18.7868 41120 1
32.6112 50.3386 20.5065 41114 2
33.4366 52.6756 19.1316 41981 1
34.0658 52.7896 22.2315 41170 2
35.6246 49.8283 21.8395 378 2
38.7982 50.4613 20.9908 18505 2
36.3659 52.2243 20.2705 428 2
40.144 52.1914 19.3397 25067 1
41.7996 50.2017 20.2536 431 2
41.6425 52.7875 21.6648 19545 1
43.1776 52.4357 19.2309 435 2
44.0157 52.8693 21.9177 1386 1
47.5479 50.0316 19.0938 336 1
45.747 50.7605 21.1572 383 2
46.1721 52.4838 19.1234 432 1
47.9955 49.8139 22.822 2240 1
49.2951 50.9454 20.8497 3092 2
52.6565 49.932 19.316 436 1
51.0809 52.8392 19.271 1392 2
52.3303 51.0899 21.7539 25001 2
50.5314 53.4401 22.0963 19565 1
55.3359 50.1854 20.6206 1268 2
53.799 52.2616 19.851 1352 1
54.841 52.81 22.0985 19469 1
57.0692 52.3607 21.7219 1267 1
57.6174 49.8938 22.2301 1310 1
58.1015 50.7574 20.0597 3150 1
60.2073 49.4635 22.2948 20342 2
60.6122 51.6125 20.1052 20390 2
61.7078 52.5716 22.9119 19476 2
65.7928 49.7633 21.6353 20397 1
63.2892 49.5885 20.1057 19483 2
64.5818 52.4161 21.3683 19486 2
66.9867 51.1483 19.4442 19482 2
70.0003 49.1248 19.9323 20352 1
68.8146 50.9875 21.8412 19488 2
70.6213 52.1141 19.5685 19489 2
74.5443 48.9157 20.4398 19492 1
74.0401 52.3027 20.2994 18596 2
74.5862 49.4752 22.8246 18592 1
72.0732 50.2025 21.3595 19532 2
63.9431 30.1489 18.7216 18380 1
20.5636 54.3001 20.4516 53557 1
20.5422 56.3366 22.1168 48680 2
19.4574 57.015 19.2926 63468 2
21.8947 56.1484 19.1652 63465 1
22.872 53.8933 19.6603 63478 1
23.6438 55.5661 21.5412 53648 2
25.257 57.5927 20.9648 63474 1
25.3196 55.1645 18.9823 63479 2
27.0001 55.3995 21.4906 5799 2
31.4505 53.4248 20.9744 43152 2
33.4229 55.9301 22.3748 1382 2
34.921 54.9733 19.74 63057 2
39.0045 53.2205 21.3415 477 1
38.1246 54.224 18.91 1338 2
36.8456 54.9974 22.0282 376 2
38.9201 57.017 20.5535 1385 2
42.7775 54.9253 21.6019 481 1
41.2514 54.775 19.4462 429 2
43.1847 56.7137 19.4287 19607 1
46.3103 53.3391 21.6444 438 1
44.9521 54.8074 19.7806 479 2
47.0438 56.2652 20.9336 1393 1
48.3456 54.0651 20.1772 1348 2
52.818 53.9622 21.1994 1399 1
50.8282 55.6267 20.429 491 1
55.5797 54.5101 19.9356 20435 2
53.3328 56.7877 20.7173 1398 2
55.9336 57.8472 19.2788 20473 2
56.8085 55.1379 22.68 25887 2
54.047 54.9868 22.7841 19657 1
57.9935 53.1136 19.6622 19517 1
60.1372 54.1786 19.0422 18630 1
59.0987 53.9356 21.6887 25865 1
58.3472 55.9454 20.1389 1401 2
61.0798 54.9786 21.3139 19572 1
61.272 56.7196 19.2389 19575 2
62.9174 53.8607 19.4242 19570 2
63.662 54.919 21.9825 19520 1
64.1295 56.4845 19.9207 19577 1
65.9986 55.1832 21.5746 19585 1
68.2517 53.93 19.8872 19524 2
69.2087 57.1478 19.3393 19586 2
67.1052 52.9608 22.24 25888 1
70.8747 55.0384 19.4731 19584 1
70.954 53.5549 22.1864 20444 2
73.1877 54.8436 20.5887 19533 1
73.0547 56.8644 18.7397 19535 2
71.382 56.7912 21.6959 20485 2
17.7928 22.3961 41.2188 24702 1
17.9961 60.5002 20.1001 53700 2
19.5862 58.7268 21.2565 63438 1
20.6905 60.8662 21.1163 63410 1
18.1935 60.1573 22.7082 63040 1
22.617 58.6418 20.7813 63433 2
22.9028 61.6634 19.4698 63588 2
23.1228 61.8101 22.6686 54632 2
36.0459 57.7913 20.7653 19499 2
38.5217 59.9762 19.6136 2288 2
39.3013 59.4754 22.1871 2286 1
41.8211 57.6787 21.6693 24937 2
41.3058 60.0889 20.3663 526 1
43.8058 59.5775 19.7126 1440 2
18.0851 56.8361 35.2592 48958 1
44.4617 57.5415 21.3858 1387 1
46.2584 58.3614 19.792 1391 1
44.7125 60.7361 22.5761 1442 2
47.5575 61.0827 20.9627 1446 2
47.0089 58.5006 22.5291 1445 2
17.9516 38.3967 19.448 63669 1
49.7105 58.0893 21.0014 1447 2
52.3165 59.3375 20.2667 19616 1
50.6049 60.8547 21.2215 25036 1
52.0866 58.9243 22.9215 19569 2
54.3412 59.4539 21.2694 2342 1
53.5245 62.1373 21.0341 19660 2
56.2832 60.5262 20.2317 25862 1
56.7754 58.5543 22.3585 448 2
55.9254 61.6099 22.5494 20518 1
58.9925 59.1735 20.2831 19618 2
60.1274 61.3971 19.5109 19620 1
58.5025 61.7758 21.605 20521 2
61.5433 60.9195 21.9409 18729 2
61.7711 59.2922 19.9304 19621 1
62.5736 57.7931 22.1852 19574 2
62.8314 61.8434 19.0834 18728 2
64.0681 58.9894 20.1628 19573 1
64.2248 61.2023 21.13 1455 1
66.4835 57.9635 21.1411 1420 2
67.0328 61.0154 20.1799 546 2
69.8315 61.6593 19.6013 19631 1
69.1414 59.4003 21.448 20487 2
70.7742 61.6049 21.7954 19632 1
74.1955 57.9379 22.0153 19593 2
74.5407 58.9914 19.4935 19635 1
71.4749 59.3442 19.4558 25902 2
73.079 60.4948 21.2351 18692 1
71.733 59.2191 22.8391 21396 1
20.2644 62.4914 19.0634 63179 1
21.2898 63.4108 21.069 63141 1
18.5992 63.3361 21.2365 54635 2
17.9354 66.0756 22.7242 54678 1
20.2871 66.4372 20.7444 48693 2
22.2656 64.7095 19.0554 63411 2
23.5544 64.5994 21.4231 63144 2
42.4562 62.0272 21.0384 572 1
40.4987 62.1427 18.5711 19546 2
39.7121 62.2551 21.6086 2328 2
44.2026 65.1025 20.8413 18753 2
44.9596 62.6194 20.7579 579 1
47.5364 63.9643 21.701 578 2
45.2573 63.6125 23.1494 18756 1
50.2668 63.465 20.2963 1487 2
49.6567 65.7147 21.8633 19699 1
49.1973 65.9056 19.1953 631 2
49.7456 62.5402 22.9154 2338 1
52.1467 64.4768 22.7406 2381 2
55.1265 62.2887 18.7289 18770 1
56.4537 63.0105 20.4037 19665 1
54.3305 64.8353 19.8238 583 2
55.1657 64.0524 22.3462 1490 1
57.6139 65.2497 21.8051 2430 2
58.6649 63.877 19.198 1453 2
60.4427 66.0407 20.7275 25882 2
60.8308 63.2825 20.496 19622 1
59.8512 64.001 22.6217 20522 1
62.308 64.5481 18.984 19668 1
64.9335 63.6016 19.5897 18779 2
63.6175 66.0135 20.4398 25901 1
65.5453 64.7299 21.9943 19624 1
62.8935 63.6454 22.2099 19670 2
69.1799 18.1764 21.2172 38366 1
67.4292 63.3595 21.3537 19629 1
68.4587 65.8743 22.1629 18736 2
69.8098 63.7713 20.8573 18742 1
69.8229 66.1395 19.4256 19628 2
72.1331 62.2584 19.7342 19589 1
72.2643 64.803 20.363 1461 1
73.971 63.0088 21.673 19679 2
74.4049 66.2246 22.5323 21693 2
74.6151 71.754 73.8645 15179 2
20.0695 69.3543 20.9442 63128 1
18.4992 70.8527 22.4879 54810 2
74.9606 72.8196 58.005 25592 1
23.9975 57.6082 18.6455 63184 1
22.1215 69.2694 22.7711 55682 1
22.1785 66.8506 22.4637 63140 1
23.2204 68.0455 20.2264 54813 2
23.3823 70.4891 19.0042 63127 1
24.4277 70.6645 21.8228 63014 2
46.7077 66.9649 21.2622 1483 2
52.0304 66.4356 20.566 632 2
49.7396 68.4644 21.4315 1531 2
46.4532 64.1693 18.8735 577 2
56.8491 66.6335 19.1877 19710 2
52.9224 69.3221 21.7414 19711 2
54.2806 67.6891 19.6418 1536 1
56.1737 69.5845 20.6176 25821 2
54.8642 66.8849 22.1738 1533 2
59.3381 68.5502 18.7736 3391 2
60.8706 69.0649 21.4555 19667 2
58.4657 70.2083 22.1757 2432 1
58.2926 67.8309 21.2405 2425 1
17.7553 40.1009 27.3106 63283 1
62.41 67.8479 18.6028 19666 2
64.2378 68.8053 21.1492 19672 2
65.2633 70.1519 19.0188 21779 1
65.3559 66.9547 22.9139 20571 1
66.1985 66.4529 19.7357 19676 2
68.0165 68.9962 19.1516 21739 2
66.9106 68.218 21.5675 25856 1
69.5388 68.2738 21.704 25881 1
69.4894 70.6401 20.9539 21740 1
71.7837 67.2287 21.5877 2396 1
70.8626 68.8619 19.865 21691 1
73.8996 69.2006 20.8174 2592 2
72.8194 67.0763 18.8672 43679 2
71.5956 69.4972 22.2708 25816 1
21.6323 71.0214 20.5857 54814 1
20.2241 73.1142 21.4391 63116 2
19.0243 71.391 19.0661 54856 2
18.5494 74.0938 19.342 63370 1
74.9092 37.7211 21.1488 19298 1
23.2231 73.2643 20.0503 3585 2
25.2781 74.2173 22.1827 3587 2
22.4602 74.0745 22.7987 3538 1
22.1187 71.7319 23.152 63124 1
56.9771 72.7431 22.1844 22631 2
59.7974 71.8918 20.5031 21778 2
59.2985 74.3217 22.3825 12850 1
61.6293 73.941 22.1809 25814 1
65.0891 73.4259 18.8843 20866 2
63.6169 72.1561 21.6904 21788 2
62.0796 73.5185 19.4697 21782 1
63.4559 74.8681 20.811 13527 1
26.0684 18.1232 40.2965 23624 2
66.4391 74.0981 21.9197 21781 2
66.6113 70.8768 21.3549 20824 2
68.2371 72.9794 19.7781 21741 2
71.2318 71.7981 22.2108 18741 1
73.0774 72.0061 20.4842 21785 1
72.8991 73.4537 18.6093 43678 1
71.132 74.1064 20.6073 21745 2
74.0013 74.2188 21.8615 20834 2
18.6226 21.6164 23.0516 20053 1
21.6745 21.923 24.7336 25064 1
20.0915 19.5367 24.2158 1881 2
17.9045 19.8532 27.0775 59349 2
24.5494 21.1506 22.793 1848 1
23.1403 19.7621 24.8547 20009 2
24.4545 22.4662 25.4146 24990 2
25.6151 18.3886 26.2815 784 2
26.369 20.962 26.9637 2772 1
26.9575 20.3273 24.3259 2717 2
28.6709 18.7872 26.5268 1847 2
28.5017 22.043 26.0482 2776 1
30.5064 20.4109 24.9914 1891 2
28.5276 22.3993 23.6638 936 1
32.5558 19.0071 22.9693 23637 2
33.4831 20.8679 25.2212 987 1
35.0468 21.9932 23.4411 2726 1
35.1602 19.5651 23.9626 20120 1
37.9379 19.4757 23.6226 21910 2
39.0028 22.1349 23.9948 3657 1
36.6998 21.2645 25.7108 1900 2
39.4978 22.5588 26.5603 3662 2
36.583 18.1681 25.6233 3659 1
38.6056 19.4993 27.2723 3663 2
40.8536 20.4559 24.8569 22582 2
42.9745 22.2171 23.6436 22532 1
43.9331 20.2935 24.5375 21871 1
42.9108 22.3058 26.494 2784 2
47.274 21.3505 22.7261 1908 1
46.3936 20.1141 25.2978 12875 1
48.4992 21.6549 26.1784 2736 2
48.6838 19.3845 23.8152 23264 2
50.6281 21.6271 24.1306 21895 1
51.5971 18.6096 24.6096 3670 2
51.7356 21.6447 26.6561 22570 2
49.8666 19.3508 26.6819 22528 1
52.3243 19.1881 27.3833 21898 1
55.7889 19.7182 23.4373 23127 1
54.7398 20.0724 26.4525 22564 2
53.1767 20.9617 23.86 2785 2
57.186 20.903 25.0389 23632 1
56.8908 22.1179 27.145 12459 1
60.4676 18.1756 26.5578 22527 2
59.8822 19.94 24.3321 20993 1
59.4045 21.3297 26.5878 20141 2
74.8962 23.1198 57.4545 5143 1
61.02 22.0961 24.2504 20104 1
61.9702 19.3938 22.7482 38322 2
62.3859 20.603 26.0977 25850 2
64.3728 18.8685 23.9387 12897 1
65.1528 20.9428 25.188 11550 2
64.3375 18.8031 26.5361 31025 1
68.2068 21.3155 24.5264 12867 2
70.1683 20.4917 26.1018 11516 1
67.2734 19.498 27.0155 30814 2
70.4738 19.1905 23.5138 22613 2
70.8254 22.0304 23.1148 22672 2
74.8749 33.4548 50.1087 28285 2
66.6674 22.1998 27.2206 12415 1
73.1247 20.7474 24.6849 30808 2
71.7939 18.7933 26.2756 12506 1
74.6487 19.9845 26.7452 12412 1
19.0017 22.3378 25.6393 20051 2
19.7477 26.2864 23.0709 1883 2
18.0691 24.2868 23.8673 1835 1
20.2142 23.539 23.3912 1887 1
20.1368 24.787 25.5451 1930 1
22.2514 25.8307 26.836 2818 1
21.7103 23.106 27.0485 1841 2
22.6559 24.6826 24.3391 1886 2
24.8516 26.4561 26.135 976 2
28.4092 26.3018 23.1698 1944 2
26.9261 24.4338 25.417 1889 2
29.5205 24.3138 24.6163 2771 1
28.2847 26.8889 26.4505 2769 2
31.1578 26.3414 24.993 1946 2
31.873 23.2413 25.5409 2775 2
34.7269 23.4234 26.1759 1948 2
33.8223 25.6968 25.333 2778 1
38.6782 26.5626 23.2066 1958 2
37.062 23.9965 24.181 25025 2
35.9135 26.4105 23.4199 1951 1
39.1357 25.8809 26.0014 4664 2
37.2924 23.9888 26.8501 5526 1
36.2887 26.7024 26.157 2828 2
41.0609 24.1882 24.3668 23152 2
42.2855 25.4323 26.8888 3759 2
44.0717 25.1954 23.7646 2837 2
44.4659 26.7183 26.069 2006 1
45.7557 22.5243 24.7798 4627 2
44.8306 24.4158 26.616 21900 1
47.074 25.7619 25.243 2786 2
47.3092 24.1337 27.0589 4629 1
48.776 23.462 23.7042 750 2
49.7345 26.1624 24.713 2027 1
51.8772 24.1824 24.2152 2024 2
49.8392 24.2355 26.5812 1107 2
51.9895 26.6813 26.9693 2898 2
51.9471 27.0544 24.0495 42770 1
52.8244 24.1037 26.6314 21056 1
54.5306 25.732 24.7509 40027 2
55.0091 22.9452 25.2437 30857 2
57.1005 24.5375 26.3673 2028 1
61.1106 24.9546 23.3275 713 2
58.3365 23.3499 24.2067 20098 2
59.5186 25.1518 25.6824 20201 1
61.3534 23.7073 26.4484 20096 1
57.6107 26.4844 24.435 19234 2
64.0241 23.1575 27.0849 25880 2
63.6772 23.6398 24.0157 20100 2
62.744 25.948 26.0621 19684 2
66.1586 25.4322 23.7394 25879 2
66.4904 23.3609 25.1014 12414 1
68.8341 23.8159 26.4782 20160 1
68.8956 24.3329 23.7421 19196 2
74.6479 25.7142 25.5951 20163 2
74.7857 22.9667 26.1801 12481 1
71.5941 23.0852 26.3938 1651 2
73.3451 23.4909 24.1525 20157 1
71.5864 25.6293 24.9381 20113 2
17.7513 28.6957 23.1931 63548 1
20.3536 27.5373 25.9484 2763 2
19.2402 30.2283 25.8375 1936 2
21.8857 30.0219 25.2358 1929 1
22.6924 27.7709 23.9953 1885 2
24.929 29.8377 25.1655 1941 2
22.8274 28.6861 27.3311 2859 2
26.6608 28.0339 24.6949 25059 1
27.9192 30.0852 26.2712 2817 2
29.3867 28.4944 24.7094 1949 1
33.4405 27.6412 23.194 25028 2
31.5782 29.197 24.9452 2872 1
33.7258 29.8459 24.6689 24982 1
33.5061 27.9956 26.186 24984 1
32.4433 30.953 26.9278 1993 2
30.9678 28.279 27.5078 2864 2
35.2514 29.8928 27.1481 3752 2
36.5141 29.1188 23.7783 2831 2
38.9307 28.3522 25.2414 2873 1
38.1281 29.8239 26.9615 2862 1
40.1874 29.3363 22.9478 40975 2
42.9234 28.6073 26.8044 2789 1
41.8217 27.5476 24.5906 2069 2
43.9355 30.5452 25.2714 3713 1
41.2863 30.7217 25.8608 2054 2
45.7848 30.6632 23.6516 2942 1
44.9508 28.216 23.9502 41849 2
45.6006 28.9681 27.2869 2984 2
47.7906 28.977 25.1866 2072 2
48.7811 27.2514 26.9281 2893 1
49.8438 28.3025 23.052 2026 1
50.4657 28.5277 25.5382 3666 1
50.8143 30.9526 24.075 25056 2
53.2892 29.1221 25.2652 23129 2
55.1697 28.443 23.0576 1973 2
55.457 27.971 26.136 2071 1
53.788 30.8668 27.4762 2029 1
60.262 26.6906 27.3435 19239 1
57.4141 29.6513 24.9412 20145 2
60.4723 27.6501 24.775 25878 2
60.8378 30.4535 25.6129 19238 2
59.2163 29.1318 27.2078 2856 1
63.6589 26.8832 23.0543 20151 2
63.1195 28.5542 25.2038 20209 1
65.7175 27.0387 26.0197 20207 2
65.4926 29.5004 24.1207 21002 2
64.7394 29.6747 27.2272 20150 2
68.9482 26.6371 26.4361 21054 2
67.9989 27.3392 24.1084 20216 1
67.5852 29.6595 26.287 21044 2
70.654 28.1828 24.2992 20159 1
70.4199 28.988 26.4754 20149 1
73.0455 27.9091 24.6741 18336 1
72.4222 30.194 25.3252 19249 1
71.1849 31.1557 23.2908 19296 1
48.1634 59.3906 19.096 1395 1
21.4736 31.5164 26.9839 1982 1
18.156 34.3035 23.2379 2808 1
20.2026 32.5775 24.1943 1934 2
21.4266 34.4516 26.8158 1977 2
19.1141 32.9395 26.6995 2811 1
22.426 35.0008 23.8515 1981 2
23.3288 32.4654 25.4665 2863 2
25.8073 34.5978 25.0765 2042 2
26.4017 31.8834 24.5926 1986 1
30.1399 31.3071 24.377 1950 2
26.7659 32.7402 26.8582 63326 1
28.1329 32.8875 23.2737 1938 1
29.9852 32.2719 26.9078 3749 1
28.9201 34.4289 25.5044 1990 2
32.0442 33.6862 25.3676 2908 2
34.4605 33.7958 24.2515 3754 1
34.3735 33.0074 26.699 21059 1
35.3823 31.7156 24.9028 4713 1
38.2248 31.4745 24.5687 41895 2
37.0362 34.2464 25.3101 2931 2
39.7723 34.4797 25.7441 284 2
41.0078 32.6648 23.4393 2004 2
41.8058 35.1333 24.0268 2944 1
42.9741 33.2101 25.556 1149 2
44.245 33.1235 22.9096 43700 2
46.0433 31.9943 26.2076 24957 2
48.1541 31.436 24.2514 2023 1
46.7321 33.2782 23.7684 1209 1
45.4236 34.3959 25.3526 21169 1
47.7897 34.7574 26.6805 2953 2
49.4055 33.8972 24.2784 2117 2
52.252 32.2212 26.1309 2902 1
49.1737 31.873 26.7218 1160 2
52.4801 33.983 24.1927 20248 2
51.1692 34.4097 27.2053 21177 2
57.4412 33.8706 26.5934 20255 2
55.17 31.8221 24.9659 19326 2
55.2052 34.6967 24.9133 2123 1
57.028 33.562 23.729 19235 1
53.3795 35.9079 26.0417 2997 1
54.3032 33.8479 27.3708 21045 2
61.2449 32.306 23.2132 20212 2
58.6337 31.917 24.2274 18373 1
58.7963 31.754 26.6689 21089 1
59.89 34.5687 24.8967 20155 2
61.3061 32.9907 26.4287 25877 1
63.2609 31.2936 25.2595 20257 1
64.2413 32.1556 23.3377 20210 1
63.1846 34.2772 24.975 20256 2
65.4633 34.3873 26.7638 20302 1
65.6254 31.8575 25.6371 19344 1
66.6788 31.6897 22.7865 19293 1
67.8355 32.2942 24.84 20153 1
65.9288 33.7213 24.0207 18372 1
69.8803 34.482 26.3601 20211 1
68.2774 34.6543 24.5738 19347 1
70.2894 31.6331 25.861 1129 2
67.8817 32.69 27.4845 2915 2
74.5433 35.1996 23.0566 19355 2
74.2475 32.0957 24.2509 19346 2
71.8206 33.8413 24.4353 19350 2
72.9946 32.6716 26.5569 21104 1
19.6008 35.8823 24.7503 63540 2
19.7335 38.6806 23.5334 63318 1
19.7778 40.1091 25.8875 63307 1
21.9123 38.0852 25.0748 2911 2
23.6297 36.0098 25.8199 1072 1
24.7076 37.5384 23.7656 1985 2
25.6643 37.5067 26.9546 2047 2
21.9325 39.7075 27.1834 21100 1
28.54 36.959 26.6518 2914 1
27.2105 36.6334 24.4362 2041 1
27.4582 39.3012 25.2784 2918 2
29.953 37.4874 24.3869 2870 2
32.5543 35.9147 23.377 1997 2
34.4354 36.0454 25.9978 1996 2
32.8804 38.706 26.3054 3847 1
32.8896 39.0414 23.6109 20156 2
31.8551 36.5821 26.2511 3807 1
35.1908 38.911 26.8332 3840 1
37.3309 38.5828 23.0016 2061 2
35.318 38.5853 24.4857 2052 1
35.6798 36.0503 23.09 1995 2
37.6822 37.4607 25.7874 20236 2
42.6757 37.2549 23.224 2066 1
43.0976 36.3249 25.9814 4669 2
39.8412 36.8296 23.6683 41994 2
41.7032 39.2706 24.5278 3037 2
40.5479 37.4861 27.0438 3811 2
44.3365 38.6133 25.0944 2111 1
45.1139 36.1209 23.3402 2995 2
45.9636 39.9489 26.5164 2068 1
46.4326 39.0225 24.2703 25017 1
48.1436 36.8158 24.3353 2070 1
46.1843 36.8058 25.7654 2954 1
48.5304 40.1867 23.7228 1213 1
50.7384 39.1395 23.0502 2074 2
48.5079 38.6742 26.2467 2114 2
50.793 36.7835 25.1086 3047 2
52.3475 39.5536 25.106 20296 1
53.5654 37.1221 23.6598 25053 2
54.4682 38.5434 25.776 3920 1
56.1749 36.6722 26.7962 20341 2
56.3948 37.8073 23.9918 25006 1
56.7267 39.978 26.0516 20254 2
57.4541 35.7495 24.4179 19331 1
59.0981 37.728 23.1154 18376 1
61.4773 35.9132 26.5787 20202 1
57.855 39.6406 23.5207 18378 1