ITEM: TIMESTEP    
175000     
ITEM: NUMBER OF ATOMS  
77888     
ITEM: BOX BOUNDS pp pp pp
17.607 132.393    
18.0782 131.922    
27.7272 122.273    
ITEM: ATOMS x y z id type
19.684 20.5588 28.5321 72779 2
19.0367 19.0812 30.7282 1881 2
19.5812 21.8614 31.4423 1887 1
21.5616 22.1445 29.5355 977 2
30.079 74.9469 35.9702 21856 1
22.2423 19.1774 30.3624 1839 2
25.0442 19.7701 31.2675 22628 1
24.4391 20.3692 29.2035 926 1
23.1113 21.2745 31.4437 1848 1
74.5205 30.6387 39.0736 21051 1
30.1448 19.713 30.5429 20062 2
27.1321 21.0396 29.6065 1846 2
29.7234 22.3092 28.9295 1895 1
28.0099 18.6281 28.8085 72824 1
31.6999 31.6989 27.7745 41022 1
33.4758 20.2933 30.2105 43709 1
34.3299 21.9202 28.1228 19151 1
34.14 18.7336 28.1159 24988 2
31.9637 21.3392 31.6446 25026 1
31.8952 20.694 28.1315 25063 2
34.6554 21.4504 31.9723 2726 1
32.3596 18.3424 30.1266 2719 1
36.0147 20.3686 29.7103 1851 2
39.1871 21.102 29.4306 22537 2
37.4886 21.8922 31.553 1899 2
37.8798 18.3284 30.9241 22536 2
74.7926 38.5516 34.3553 2097 1
40.9664 19.2814 31.2649 1854 2
44.07 18.7898 31.7704 23128 2
41.6921 19.8846 28.3896 43666 1
43.3111 20.4848 29.8778 21871 1
42.6416 21.5548 31.8316 3665 1
40.2337 21.81 32.0126 3657 1
45.392 19.2833 29.0576 1099 2
47.4807 20.7761 29.5368 40834 2
47.0421 18.4969 31.2698 22576 2
47.9056 22.0372 32.1527 1908 1
45.4 21.0567 31.9891 4627 2
50.4933 19.1597 28.9381 38521 2
49.984 21.6576 28.8227 40893 1
49.5772 20.0699 31.4474 22529 2
52.5639 21.0842 29.4584 38365 2
50.8907 22.0879 31.6827 1110 2
53.2041 20.0853 31.9249 22574 1
55.7697 18.9261 28.9635 21944 1
54.9751 20.4565 30.4297 12513 1
55.1204 21.6697 28.2465 39988 2
56.5192 21.9547 31.1297 13500 1
54.7763 18.3825 31.2534 22565 1
59.9428 22.1473 28.5577 31298 2
60.4174 18.6426 31.1437 19184 2
59.6494 21.8103 31.338 31285 2
60.2829 19.5082 28.6709 31004 1
57.9177 20.2603 29.4423 38509 2
64.4663 21.4326 30.5525 21892 2
62.0373 20.6471 29.7792 31021 1
64.2209 19.5234 28.5805 30371 1
63.7724 18.6249 31.2553 30999 2
39.8178 18.5182 28.941 1904 1
66.502 19.3362 29.5014 31023 2
69.0159 21.6409 31.851 19245 2
67.1817 21.7206 29.7801 31293 1
68.8769 20.2097 29.0664 30997 1
69.5749 18.8633 31.0367 38366 1
66.6976 20.3976 31.8303 20998 1
74.1287 20.0272 29.5893 31289 2
71.2806 21.0093 30.258 30996 2
73.4528 22.4298 31.4501 12413 2
72.5209 18.4972 31.0384 21403 2
70.9067 18.4962 28.4308 30343 2
18.6248 23.2913 29.4728 1928 2
20.6635 25.0488 30.1581 1885 2
20.7435 26.8774 28.3463 970 1
63.4936 18.3345 34.0189 12512 1
24.6068 22.8732 29.983 25024 2
22.9361 24.5265 28.8105 25062 1
23.038 24.9779 31.2472 1888 1
25.5322 25.3662 30.8957 1945 1
25.2585 26.5418 28.6876 25061 2
22.8069 26.8867 29.3439 52493 1
24.0411 27.0999 31.2876 63545 1
29.5251 22.3375 31.7846 1944 2
26.6708 22.7273 31.488 1884 1
27.7155 24.1814 29.4974 1943 2
30.375 24.6783 31.0468 40920 2
28.3181 26.8471 29.5782 39954 2
57.0163 74.783 35.0424 22679 1
32.0645 23.0282 29.6697 989 2
33.4604 25.7141 31.7036 1035 2
33.7195 24.9887 28.3123 1999 2
31.9019 26.5899 29.5064 43811 2
34.9107 23.4033 30.2297 25027 2
36.0806 26.0979 28.7446 40922 1
36.8128 25.4226 31.0502 2729 2
37.0347 23.3202 28.4509 40928 2
38.5759 25.6437 28.2243 43667 2
39.3577 24.0745 30.5927 3770 2
41.9274 22.8451 29.7284 40934 2
41.089 25.4842 29.1054 1956 1
41.9414 25.5131 31.505 2782 1
43.7038 25.0166 29.5322 41801 1
43.7726 23.8218 31.7262 22532 1
45.3735 22.729 29.5816 43705 2
46.4428 25.4716 29.1624 40939 2
47.7887 25.5525 31.5923 1153 1
44.7935 26.1895 31.539 2837 2
46.2457 23.9921 31.8655 21900 1
48.6721 23.5641 30.145 40989 2
51.5715 23.8119 29.0299 19180 2
50.5344 26.0803 30.5027 2020 2
52.4845 26.2822 27.9731 1165 2
49.1802 25.8133 27.902 23205 2
54.025 23.0522 31.1413 23176 2
53.2901 25.9056 30.699 23642 1
54.5529 24.5987 28.9825 40025 2
55.7488 25.3326 31.2694 40030 1
57.1176 23.5155 29.0969 38629 2
57.5204 23.8216 31.6125 23172 1
57.9887 26.1892 29.9924 18330 2
59.492 24.2431 30.3253 20148 1
61.2604 25.7872 29.015 199 2
61.1485 26.2096 31.9052 713 2
62.5608 23.2149 28.0412 30803 1
61.9676 23.2912 30.4562 19285 2
64.4842 23.8732 30.1081 18327 1
63.9032 26.553 29.863 19229 2
66.2682 25.6629 30.5005 19241 1
69.6425 22.6839 28.8222 31019 2
69.3023 24.5953 31.0675 1065 2
67.0819 24.1716 28.7665 31294 2
70.2026 25.3123 28.3931 44061 2
66.4839 23.2019 31.7881 31002 2
72.8959 25.6636 28.763 44079 1
71.7721 23.8152 30.0695 12457 1
71.4188 26.1199 30.8051 30290 1
73.607 25.1594 30.9408 43162 1
74.1845 23.0731 28.8512 39972 2
18.94 27.3551 30.1108 63548 1
19.5842 29.1128 28.5565 1933 2
21.3192 30.7134 30.5076 1071 2
18.1823 29.5968 31.214 1936 2
21.2215 27.9848 31.2274 63546 2
22.0373 29.0409 28.0483 975 2
24.0008 29.2641 29.7252 1023 2
26.0249 30.3587 31.2508 40916 1
26.4205 27.6649 31.5769 1025 2
30.2758 29.7416 27.917 1020 1
26.56 28.6677 28.891 986 1
28.3404 29.8919 29.5998 19240 1
30.2411 28.6661 29.9996 983 1
29.557 27.13 31.8666 1949 1
28.6934 29.6323 32.0953 1947 2
32.6705 29.3614 28.9941 41885 2
31.7785 28.525 32.0135 41845 2
33.0598 30.6273 31.4165 1033 1
34.5064 27.5203 30.2629 40926 2
30.63 31.5396 30.3794 1940 2
35.3225 30.2339 30.4616 41893 2
37.3544 27.7997 29.5306 2779 1
37.9263 29.8545 30.8304 2010 1
36.8677 28.1613 31.8529 1083 1
38.4028 30.3547 28.4902 1907 2
35.8087 29.4004 28.1135 2000 1
39.3625 26.977 30.9938 1958 2
39.5905 28.0301 28.6038 2836 1
42.5949 27.5163 29.8746 41842 2
43.4137 30.3693 30.4093 43703 2
40.646 29.7428 30.4744 40975 2
65.2492 49.9062 28.3132 20344 2
45.3444 28.0909 29.9692 40985 1
46.3681 30.2716 29.2901 41032 2
48.0482 27.6952 30.2493 40935 2
44.8473 29.6466 32.1414 41849 2
49.2805 30.0897 29.7857 1954 1
50.532 28.3429 28.8255 42717 1
50.6504 28.7586 31.3257 2027 1
51.7211 30.8652 29.4058 1163 2
52.6692 28.0882 30.106 40996 1
75.0545 56.9816 72.4629 27677 2
55.1415 27.9572 31.4868 20144 2
54.57 30.2558 29.7889 248 2
55.3713 27.4927 28.6635 19382 2
59.998 28.0436 29.5069 246 1
57.5174 29.1652 29.7306 19231 2
61.5638 29.9508 28.4993 2792 2
60.2462 30.4901 31.2786 200 2
59.3661 31.1969 29.0671 1109 1
59.0231 28.0981 32.1362 19234 2
61.9928 28.4388 30.75 19243 1
64.2429 29.3756 29.3761 19242 2
63.2434 30.7568 31.1032 20214 2
65.9703 27.3702 28.178 18337 1
66.1998 28.1457 31.2004 12515 2
68.4502 27.0462 29.2539 30998 2
69.2788 27.9553 31.316 19186 2
67.1477 29.9197 29.1311 30833 2
69.8978 30.0067 29.929 43818 1
68.6009 30.8087 31.9775 20158 2
25.745 18.3248 29.5964 23170 1
74.6298 20.4825 32.6479 30810 2
74.1803 27.7902 30.4107 30993 2
72.3998 29.8657 30.169 43804 1
71.435 27.9416 28.8017 18339 2
71.9088 28.158 31.936 18336 1
74.2579 29.8442 28.0874 39105 2
74.3239 31.1521 30.2536 43989 1
18.5655 34.8884 29.6171 1017 2
21.5682 33.5516 29.3299 1060 2
18.6257 31.7645 29.5013 63536 2
19.9324 33.1743 31.6748 1934 2
40.4207 18.2134 59.0737 4636 1
51.3209 52.3512 28.3211 436 1
46.4045 32.9492 28.0457 197 2
23.9321 31.9137 31.205 63681 2
23.9844 34.5454 30.0061 43702 1
22.4565 34.1638 31.6533 1069 1
23.6435 31.9504 28.3681 72814 2
26.1347 33.2986 30.1822 1070 1
26.2053 31.186 28.4662 40917 2
28.0111 32.0733 30.2827 40965 1
28.5709 34.2501 28.9829 1031 2
30.3517 34.1803 30.8627 2916 1
29.1715 31.8331 28.0128 979 1
27.9233 34.4202 31.5463 1989 1
34.9852 34.0185 30.2454 24974 2
33.4255 31.9951 29.5701 984 1
32.0968 34.0931 29.0201 1029 2
32.5587 33.278 32.1318 1950 2
56.8317 47.8751 27.9236 19426 2
36.3117 32.3291 28.2743 1077 2
39.1668 33.1411 29.3347 1199 2
37.1002 32.2333 30.8264 1080 1
37.7047 34.9235 30.8382 20283 2
36.0158 35.5148 28.1452 41937 2
39.2718 31.9122 32.1444 41895 2
41.1567 31.5072 28.4224 42701 1
40.2932 35.7172 29.9618 2002 1
41.798 33.1273 30.7234 2004 2
43.7823 32.2298 28.7865 41848 2
43.5618 31.9962 32.7063 3713 1
48.0559 32.0123 30.3746 2942 1
44.5821 34.6733 29.7105 2990 2
47.164 34.6527 29.7667 2067 2
45.715 32.3576 31.344 43700 2
50.0556 31.2876 31.7511 42715 1
49.9522 33.8034 30.6831 237 2
52.3878 32.3593 31.2657 2902 1
52.7204 35.2231 31.0107 2022 2
51.6431 33.5374 28.7176 291 1
74.856 56.0481 39.7325 21392 1
56.5494 34.3499 29.1912 19334 1
54.1271 33.0073 29.5123 20251 2
55.5839 34.1654 31.4843 1208 1
54.9054 31.7529 31.9076 249 1
57.1918 32.0696 30.7573 2077 2
59.1523 33.8629 28.8176 241 2
59.641 33.1171 31.1137 19233 1
57.905 34.7219 31.4178 19235 1
60.7453 35.5418 30.8811 2121 2
63.6881 74.8334 61.9899 28927 1
61.8283 32.8535 29.2591 1112 2
63.2799 35.4826 30.2976 43165 1
64.5066 31.8093 28.6592 18380 1
64.0096 33.3029 30.6728 19341 1
64.8895 34.6153 28.5589 19232 2
66.2269 34.7274 31.6308 20256 2
66.263 32.1598 30.6532 19289 2
68.8815 31.8619 29.2749 20162 1
69.606 34.2376 29.1448 19293 1
67.3791 34.4408 29.0315 20215 1
68.8125 33.4918 31.3532 19347 1
66.7503 32.5326 28.0004 19288 1
68.5058 35.8649 30.5556 19339 1
73.803 32.9304 28.7041 19297 1
71.4726 32.4178 30.4508 19246 2
71.7659 34.1266 28.4415 18438 1
71.1583 34.7371 31.5536 19295 2
74.2441 33.5512 31.5583 19301 2
73.6561 35.3371 29.9977 43988 2
20.7004 35.7399 31.0601 63543 1
19.7296 37.3171 29.6854 63542 1
18.5116 39.3593 30.8634 63318 1
21.3568 38.5428 31.5941 1979 2
74.1221 72.9581 72.9105 25193 2
22.3564 39.4417 29.1286 2045 1
22.132 36.7609 29.3574 1988 2
24.7714 38.5297 29.8425 2036 2
26.3349 36.1828 30.6076 1075 2
24.7178 36.2848 28.5371 2034 1
23.3171 36.6341 32.0331 1981 2
29.514 36.7655 30.6212 1074 2
27.3635 37.1163 28.2334 41015 2
29.5098 39.4681 29.5174 1028 2
27.5175 38.7053 31.4522 1122 2
30.465 36.4971 28.2635 1027 2
26.9327 40.0605 28.4217 41016 2
34.2536 38.967 29.6609 2829 2
31.826 38.2164 29.6757 1079 1
33.5711 36.4987 28.9778 41936 1
32.4414 36.2142 31.254 1997 2
30.9521 38.8751 32.1302 2870 2
33.3098 39.801 31.912 20156 2
38.9337 35.0434 27.8746 19202 1
35.647 36.7799 30.7278 1995 2
38.1977 37.2426 29.169 41068 2
36.8339 39.116 31.5376 2061 2
42.7003 35.6184 28.8032 41024 2
42.0022 36.3277 31.513 2944 1
41.1254 37.8064 29.3494 40988 1
43.4295 37.9996 30.4135 2066 1
43.0767 38.809 27.9955 1204 2
39.5274 37.8842 31.643 41994 2
48.5981 35.7693 31.6752 236 1
45.2645 36.9852 28.8163 1159 1
45.5894 39.4014 29.7218 41031 1
47.9197 37.2753 29.3039 330 2
45.6819 37.1728 31.3093 2995 2
47.2492 39.3645 31.5145 25017 1
44.892 39.7184 32.0904 2111 1
50.3065 36.4227 30.2089 41035 1
52.0821 36.0899 28.2476 1155 2
52.1499 38.1551 30.7017 1162 2
49.5369 38.2641 31.425 1213 1
50.497 38.1996 27.9452 40108 2
53.9334 39.0743 28.7063 18473 2
56.535 37.9868 28.2586 41085 1
55.5541 36.6006 30.9921 20297 2
54.7455 39.0123 31.622 388 1
54.8144 36.2296 28.3351 44000 2
57.613 39.1347 30.9522 18430 2
58.196 36.4784 29.3608 288 2
61.4089 38.4566 28.3522 18381 2
59.9138 38.0256 30.4563 18376 1
58.6025 39.6446 28.3415 19282 2
58.662 36.8531 31.8209 19276 1
62.3644 38.0041 31.3028 19286 2
63.8715 37.1282 28.8686 1119 1
65.0287 37.0605 31.4309 20213 1
64.3955 39.2756 30.3977 44031 1
66.1459 39.5176 31.6923 20260 1
66.4236 37.1587 29.2399 19281 2
68.6788 38.3359 29.8441 19290 1
68.3531 39.6123 31.9103 163 1
67.302 37.3552 31.9669 20208 1
70.7721 38.8553 28.3951 18383 1
70.873 36.533 29.2647 19349 2
71.0949 39.2208 31.1288 18437 2
72.5174 37.0632 31.2964 25899 1
74.0782 39.1821 31.7552 19352 2
73.4324 37.8895 29.3983 18386 1
71.798 73.2608 72.0899 15179 2
17.7951 31.6533 67.6008 62208 2
20.1165 39.9908 29.1914 63529 1
18.802 41.8084 30.6816 63648 1
19.8961 42.187 28.6187 63678 1
20.985 43.8554 30.5474 63528 2
21.7893 41.5083 29.8731 21093 1
21.6476 43.7299 27.7643 48570 2
23.4141 40.4488 31.1065 2039 1
24.193 41.8198 28.6911 41066 2
23.3294 43.3222 31.1618 63091 2
26.0325 41.1226 30.9269 2037 2
26.0667 43.6026 29.7908 2969 1
28.3059 42.4448 29.3346 43701 2
29.2981 41.3605 31.7669 25055 2
28.4298 44.4451 31.1421 2971 2
17.6071 39.0705 28.1822 63537 2
33.4518 42.0666 29.4925 1998 2
30.9733 43.5255 30.2113 2090 2
31.5265 40.5682 30.1546 41941 1
34.9966 44.6292 29.7129 2051 2
32.1548 42.0097 31.9575 1994 1
34.5879 43.2461 32.1107 41940 1
37.0584 39.904 28.6412 41072 2
38.0844 42.1174 29.6725 1202 1
35.6564 41.4042 30.9495 2053 2
36.0609 42.3612 28.3058 2056 1
37.0536 44.1048 31.8934 2153 2
40.1228 40.1257 29.3208 41984 2
40.179 43.2031 28.4675 3133 2
42.367 41.2596 28.5447 1200 1
41.4964 42.558 30.8799 1198 2
43.7105 40.624 30.2422 25047 1
44.148 43.1513 29.6057 1251 2
48.5598 40.1886 29.1455 2119 2
44.9001 41.1078 28.1085 25049 1
47.0507 42.6842 28.287 1254 2
46.2575 41.9074 30.784 25018 2
51.3755 40.3717 28.9923 290 1
48.9509 42.4361 30.0732 2113 1
51.5464 42.9877 29.5204 289 2
50.5157 40.767 31.4591 2074 2
50.0359 43.9614 32.1651 2163 2
53.168 40.9773 30.4736 20299 1
53.774 41.6779 28.3012 1167 1
55.929 40.7742 29.8197 18427 2
54.4929 43.0468 30.3164 39218 1
57.0639 43.4895 30.7418 19337 2
55.6675 43.4215 28.2075 1264 1
58.143 42.5818 28.1494 1350 2
58.3172 41.3971 30.4992 18378 1
60.7625 40.7132 30.6969 20206 2
59.8799 43.0773 30.1207 1255 1
62.8243 40.5881 29.4908 18379 1
62.3097 42.7776 29.5004 18479 1
64.5041 42.1004 31.076 19338 2
66.7183 40.1037 29.3415 18433 2
66.7059 42.9523 29.2972 19384 1
69.2456 41.118 29.4312 18439 2
68.4372 44.0625 30.4772 19396 1
67.3791 42.0662 31.7668 20305 2
70.6842 43.0575 30.7061 19389 1
72.4512 40.3029 29.1811 18443 1
72.3389 41.5826 31.0455 20353 1
74.955 41.9709 31.2727 20361 2
71.8995 42.8769 28.5511 19401 2
73.1436 44.0743 30.5613 2141 1
18.5412 44.4617 29.2622 63282 2
18.8201 47.1783 30.3661 63280 1
21.206 46.7205 29.0205 53468 2
20.0688 45.9796 31.9308 48662 1
24.0769 44.8703 28.714 63650 2
23.8106 47.3765 29.417 2088 1
25.6736 45.8589 31.1076 2044 2
22.6462 46.3396 31.6425 63083 2
26.1417 48.7437 29.7474 63281 2
27.1666 45.9533 28.3552 41064 2
29.7693 45.7757 29.1429 2049 1
28.1437 46.9906 30.7604 1131 1
28.3439 48.476 28.9114 41062 1
30.6418 45.9119 31.5631 2046 1
30.8362 48.1195 30.0656 41946 2
32.3153 46.0224 29.3113 2157 2
34.2271 48.221 30.3202 2095 2
33.0091 44.8232 31.4142 2979 1
35.073 46.1629 31.9189 3952 1
32.5764 48.4756 28.1182 2092 1
32.746 46.9099 32.03 2922 1
17.6988 53.1983 50.0496 7633 2
37.6478 44.6352 29.0325 41939 2
39.5917 44.4816 30.7401 2156 1
39.3116 46.8338 28.8936 41124 2
36.2694 46.8824 29.5875 41990 1
37.7328 47.7008 31.3724 2159 2
37.3944 48.7244 28.6295 2155 1
41.7478 45.0892 29.8923 1249 1
40.4991 46.6238 31.0977 1292 1
43.9318 45.8005 30.493 2162 1
42.0682 47.5384 28.7825 1293 2
42.7559 47.8354 31.758 25009 2
43.729 45.3357 28.1838 1257 1
47.4502 44.6041 31.2679 1253 2
45.0785 47.7579 28.955 2169 2
45.9661 45.0299 29.3727 381 1
45.8182 47.2993 31.3453 21219 1
47.6487 46.8539 29.7699 385 1
47.7548 49.0066 31.1568 2214 1
45.0991 44.5586 32.2562 19458 2
50.0102 47.4945 28.2446 1305 2
49.1067 44.8659 28.995 340 2
51.9064 48.2002 30.4542 1345 1
49.9108 46.8265 31.2506 2208 2
52.344 45.4324 30.5606 25040 2
53.0221 47.1304 28.4569 1298 2
53.6248 44.3724 28.708 1307 1
55.5604 45.8664 29.8847 1306 2
56.7348 48.2507 31.4907 21280 2
53.9226 47.6859 31.314 3089 1
54.7237 44.5885 32.2731 24949 1
74.7991 36.4534 32.4533 19350 2
59.4748 44.7351 31.9083 25046 1
58.713 46.004 29.9352 1303 2
61.2271 48.4721 29.7217 2172 2
61.7423 45.468 30.0583 20338 2
57.1069 45.6172 32.0273 1262 1
59.9387 47.4181 32.1624 19429 2
64.7427 44.389 29.5219 18435 1
63.0788 47.3218 31.5175 259 1
63.8906 44.9654 31.6377 20304 1
64.3149 46.9953 29.1955 19386 2
65.6689 47.2394 31.3851 25875 1
66.3609 44.6782 32.0848 21284 2
67.148 45.9664 29.4068 21192 2
68.7158 46.9722 31.6345 19439 2
69.1745 48.049 28.7327 18476 2
66.8739 48.5802 29.8023 25042 1
70.643 45.7571 30.0091 19436 2
72.9685 45.4438 28.8902 18542 1
74.2748 46.8391 30.2869 20313 2
71.9428 48.6674 30.8747 2268 2
72.5542 47.9324 28.1748 19445 2
17.7517 52.0142 28.8218 54461 1
21.1626 49.0765 30.7193 48858 2
19.0514 49.6149 29.3745 63274 2
19.9923 52.0733 30.8337 63060 2
20.4516 35.6113 27.6943 63683 1
23.7063 49.694 30.004 63527 1
25.2639 51.355 28.3481 2085 2
22.478 51.7001 29.4581 63486 1
25.111 51.946 30.9886 63483 2
27.7695 51.0116 29.6638 24951 2
29.8884 52.9366 29.6182 2040 1
30.4428 50.8177 30.5014 40237 1
74.7827 63.2339 37.9808 21495 2
45.9791 74.9196 31.0676 21842 1
32.7551 50.3887 29.6998 41115 1
34.1229 50.9554 31.6407 41120 1
32.5773 52.9994 29.9268 2048 2
35.1074 49.8444 27.8494 41077 2
38.2711 50.9698 29.7402 378 2
36.212 49.8361 30.8313 63642 1
37.4861 52.8353 31.9277 2199 2
35.61 52.2314 29.6747 41170 2
71.5582 30.9966 27.8216 43793 2
39.8723 51.5855 31.9177 1336 1
40.1497 49.1355 30.6226 1294 2
41.0755 52.1255 29.6686 1339 2
42.7495 49.9566 29.1831 2200 2
42.5183 50.8007 32.0335 2242 2
43.924 52.3951 29.465 383 2
47.6924 49.2587 28.5544 41079 2
45.2932 49.8557 30.9582 1295 2
46.5299 51.7535 29.557 394 1
48.2239 51.604 31.7799 25836 2
45.6468 52.6766 32.063 1389 2
48.7342 52.3088 28.6084 3092 2
50.1449 50.0281 30.2033 2213 2
52.3575 49.933 28.0395 25001 2
51.2164 52.8343 30.9065 4065 2
52.7819 50.4011 30.813 1301 1
37.8008 66.9989 27.9365 4413 2
54.9398 49.1804 29.4198 19428 2
53.7509 52.0236 29.2837 25885 2
56.3529 51.2759 30.7625 25890 2
55.9614 52.8535 28.2206 19473 1
39.9106 18.3486 54.1595 18980 1
58.5692 48.747 29.8009 19470 1
59.6226 50.8904 29.8963 3150 1
58.8009 49.7621 31.8536 1310 1
61.3704 50.5724 31.9989 20342 2
62.3738 51.3575 29.057 19483 2
64.1146 49.5437 30.6373 18534 2
66.021 51.6698 30.3931 20397 1
63.5201 52.6261 31.2643 20392 2
74.8835 26.7483 50.2108 6565 2
65.8627 52.9718 32.3528 20343 1
68.0252 50.656 28.8648 19482 2
69.4786 49.6855 31.0166 1224 1
70.1093 52.6662 28.6229 19488 2
68.3461 52.8128 31.2594 20391 2
67.14 49.8666 31.9961 20351 2
70.9538 50.0084 28.8191 20352 1
74.807 49.5322 31.3647 25005 2
73.5613 50.9911 29.023 19532 2
71.5199 51.6289 31.2478 20394 2
74.0743 51.9397 32.0989 19485 1
18.8719 54.6095 28.8149 63500 2
21.4839 54.5363 28.6316 63481 2
19.8937 55.5564 31.3989 63223 2
20.2047 57.2901 29.0277 48680 2
22.1365 56.7112 30.7975 63485 1
22.1031 53.9799 31.0343 63046 1
24.057 53.7608 29.4286 63235 1
23.5348 56.4425 28.5867 63634 2
24.4364 55.3473 31.4517 63188 2
26.3263 56.6562 29.579 63479 2
27.1045 53.8623 30.1259 2089 2
29.0202 57.1109 30.1581 3022 1
29.0333 55.2975 28.4237 40191 2
30.1508 54.8376 31.1298 40239 2
32.1316 55.6346 28.6385 42703 2
34.5398 54.6563 30.2364 41977 1
35.1326 55.7053 27.8892 41126 2
31.6257 57.4496 30.9566 2982 2
34.7636 57.1675 30.885 428 2
32.7917 55.2038 31.7729 2980 1
36.81 54.8815 29.6808 477 1
38.7462 55.9992 31.1879 3191 2
39.0321 53.7285 29.7578 19545 1
39.6854 56.0286 28.275 1343 2
37.2643 57.4876 29.0843 1338 2
40.2997 53.7901 31.7209 2201 1
41.2196 55.0524 30.0213 481 1
42.7488 56.8086 31.0817 2289 2
43.6534 54.9564 29.4316 1386 1
42.6343 57.2342 27.8729 435 2
43.1076 53.8864 31.89 1388 2
29.1485 74.9822 68.773 10753 2
45.8274 54.2487 29.573 2240 1
47.889 55.653 28.1673 1348 2
45.3826 55.4785 31.51 1347 1
44.9397 57.2108 28.8482 1390 2
47.07 56.681 30.4644 1393 1
48.2133 54.146 30.847 1297 2
50.2274 54.9035 29.3386 19565 1
49.6275 57.1717 30.4043 20463 2
51.669 56.8525 28.6298 1399 1
52.4971 55.4477 30.7787 1397 2
52.6887 54.4 28.3559 1352 1
54.8103 54.2129 29.9167 19469 1
54.4969 56.4308 28.552 20435 2
54.8856 57.0182 31.1056 19657 1
56.8849 54.5873 31.3533 25867 2
57.0748 57.5292 30.2228 448 2
57.119 55.0302 28.7312 19517 1
60.5879 53.0981 30.4068 19379 1
58.1053 53.079 29.6699 1267 1
59.4282 55.4343 29.5831 25887 2
61.7951 57.2679 29.3843 25865 1
62.9606 54.6556 29.0778 19476 2
64.5936 57.0532 29.2372 19570 2
64.5665 55.6045 31.8185 19478 2
65.913 54.3386 29.726 19486 2
61.8504 55.4497 31.6557 19430 2
67.3581 56.7148 29.6607 19585 1
68.5256 54.8384 29.3468 19523 1
67.5591 55.6682 31.6002 20445 1
70.0084 56.6626 28.146 19586 2
74.8588 61.4344 62.9475 28393 2
70.8508 54.9715 30.4901 19524 2
72.7037 53.6107 29.4345 20402 1
73.5342 55.9813 29.1092 20444 2
74.7296 55.6262 31.5939 20446 1
72.6843 57.0579 31.8919 19588 2
73.0288 54.1385 31.933 20447 1
18.787 59.9291 29.4353 63040 1
18.9664 58.3773 31.0996 63185 1
21.3822 59.6211 30.6287 63183 2
64.9927 74.8061 71.4344 29892 2
21.0147 59.4557 27.9182 63438 1
23.8179 59.2265 29.5039 63433 2
25.6834 58.5009 31.5206 53648 2
26.1165 61.001 30.1282 63042 1
24.0692 60.7364 31.8469 63186 1
26.396 59.0654 28.8711 63410 1
28.3314 59.5287 30.4988 63272 2
29.9627 60.9952 29.1013 53557 1
30.364 58.1174 28.2702 25023 2
30.7813 60.0436 31.308 3012 1
28.5795 62.015 30.8883 48774 1
33.3983 58.1491 28.8124 41981 1
33.1067 59.277 31.2122 24941 1
32.376 60.3187 28.8488 1382 2
35.4977 60.1776 29.6522 24999 2
38.6619 60.3102 30.2173 24937 2
37.4866 58.5366 31.9329 1385 2
30.1801 50.5419 27.7401 41110 2
40.4997 58.1167 30.2793 429 2
43.3943 59.3575 30.3914 1387 1
41.6668 59.917 28.6882 479 2
43.3069 60.9499 32.3031 1441 2
41.1399 60.7454 31.0387 19607 1
45.7096 60.885 30.3502 1445 2
47.7653 59.1538 31.0136 2294 1
47.5779 58.6768 28.6122 1447 2
47.0649 61.4698 27.9713 1395 1
48.4911 60.9575 29.8269 1444 1
45.3303 58.3337 31.6572 20511 2
52.1277 61.2243 28.3446 2342 1
50.46 59.429 28.5926 19569 2
52.5912 58.3806 30.5431 1398 2
50.9916 61.3051 30.5111 25035 1
50.214 59.2547 31.7327 3201 2
53.3017 60.9058 30.278 24996 1
55.1889 59.3209 29.173 20473 2
55.8263 61.3603 30.6896 25862 1
59.8385 57.614 31.3503 444 2
59.5512 58.0561 28.0317 19575 2
58.1764 60.2218 28.903 19618 2
60.6647 59.7284 29.8814 20476 1
57.9186 60.044 31.7695 20477 2
62.963 59.3552 29.1532 19572 1
65.1303 59.6859 30.0263 19520 1
62.4776 61.2456 30.9584 19623 2
63.031 58.3046 31.6281 20428 2
63.8249 61.6247 28.1403 19580 2
66.3447 58.1037 31.6611 19578 2
69.4699 57.6232 30.9552 19626 2
66.8586 61.4592 28.6289 546 2
67.679 58.8736 28.7795 1420 2
69.9078 60.6564 30.0281 20487 2
67.371 60.4064 31.0742 20483 1
71.7205 57.9341 29.4866 20488 1
74.6229 61.0589 31.066 20497 2
72.7416 60.2611 28.9973 20485 2
74.887 58.3016 30.0741 20489 2
20.7812 62.0103 29.1067 63425 2
21.7473 62.2797 31.5242 63233 1
20.2262 65.6945 28.9815 54635 2
19.7481 64.2222 31.3031 63146 2
18.9883 63.3909 27.8805 53783 1
28.1988 74.8447 52.6134 25643 1
17.7384 65.1613 29.1729 55588 1
23.8259 62.1916 29.5643 54632 2
24.9266 64.8067 29.6353 63028 2
22.2535 64.4281 30.2168 48872 1
26.3078 65.4369 31.8525 63024 1
17.6859 71.56 66.2332 10795 2
48.7477 29.22 27.6619 41894 1
26.6502 63.2821 31.0535 63043 1
27.6729 63.0191 28.6095 63227 2
28.9945 64.8373 30.8451 63176 2
27.4415 65.7686 28.6267 5799 2
31.2153 63.451 29.1952 24954 2
33.1862 61.9316 31.2905 3025 2
34.1386 63.1054 29.0416 19499 2
32.6515 64.6421 31.1024 2284 1
33.2595 65.6681 28.9471 24853 1
34.8894 64.394 31.645 3948 1
36.0252 62.1264 31.2374 20458 1
37.1613 62.5131 28.5702 2288 2
39.3367 64.805 28.8498 2328 2
36.1599 65.143 29.5224 3184 2
38.1315 63.8178 31.3328 1384 2
39.9988 62.4584 29.8481 2286 1
42.8895 62.2558 29.9784 1439 2
40.5714 65.4652 31.407 2331 1
41.8239 64.9804 29.7075 572 1
42.8375 64.4112 31.8615 18756 1
44.976 62.5994 28.3998 1391 1
44.7834 63.0678 31.4057 1438 1
44.4053 64.9539 29.264 1442 2
47.0733 63.3303 30.409 1443 2
45.3215 65.2851 31.6007 19652 1
47.8774 66.1937 30.7875 19614 2
47.239 64.3817 28.1631 528 2
49.7853 63.4574 30.806 25036 1
52.2109 63.4811 30.0208 19617 2
50.2452 65.4798 28.9005 1446 2
49.6254 62.6713 28.3898 19660 2
51.1548 65.9932 31.3542 2388 2
54.5089 61.8948 28.6809 18770 1
54.6465 63.9224 29.7644 19665 1
56.2863 65.5888 31.155 2430 2
57.1463 63.1716 29.3844 20521 2
53.6202 65.3823 31.9566 1490 1
56.1066 65.7558 27.9996 583 2
61.3995 65.5349 29.1016 19670 2
58.7811 64.9001 30.22 20522 1
60.3636 62.6568 29.3396 18729 2
61.3685 64.8312 31.5897 20566 2
59.4246 62.322 31.6132 20525 2
65.1755 62.1374 30.9783 20528 2
62.9788 63.409 29.751 25860 1
65.4315 64.0265 29.184 19625 1
64.0548 65.6735 29.7387 19624 1
64.3583 64.3122 31.8901 20575 2
29.2751 20.4486 27.8611 23160 1
66.8012 66.1645 30.4408 21433 2
67.8637 64.1502 29.0679 602 1
68.0819 62.7301 30.9015 20533 1
70.3389 63.5169 29.6765 20527 2
69.1303 65.0704 31.2688 25854 1
71.6193 65.0942 28.0791 1461 1
72.1777 61.9897 30.8657 21396 1
73.6188 63.2921 29.1117 19679 2
72.5564 65.9566 30.3303 21693 2
73.9238 63.8859 32.0087 22549 2
71.2384 64.2895 32.0887 19639 1
74.7854 22.3735 42.8227 10565 1
18.5036 67.9028 28.929 54678 1
21.0603 68.2466 28.4839 63142 1
20.8344 67.2125 31.0588 63177 2
18.3531 66.4988 31.0248 50692 1
19.7171 70.1292 30.1263 54810 2
21.751 70.5095 28.5275 63128 1
23.5745 66.2306 31.4162 55685 1
22.9128 66.8425 29.2559 63141 1
22.9662 69.2428 30.8942 54677 2
25.1851 67.4196 29.7089 63140 1
25.6507 69.9015 29.7938 63124 1
27.5709 67.6955 31.0582 63144 2
29.1102 68.0529 28.9259 1383 1
28.3002 70.3951 29.7347 63139 2
26.7444 68.6387 28.1298 55682 1
30.1286 69.2915 31.6583 63039 2
31.0169 66.9736 30.6197 63037 2
31.6902 67.7152 28.2842 63014 2
34.3669 67.6113 28.7559 48819 1
33.1857 69.6455 30.46 4408 2
33.9953 66.8226 31.2239 5806 2
30.897 70.1192 28.9555 4458 1
38.4174 66.6355 30.8618 2332 1
36.4642 68.3947 30.1498 2373 2
39.0548 69.5009 30.5712 2419 1
40.4743 67.7038 29.6501 1482 2
43.3686 68.3366 29.433 579 1
42.9495 66.9032 31.3427 2420 2
41.7275 69.4135 31.3454 1485 1
45.6876 67.0157 28.717 578 2
48.1187 68.4303 29.1916 1528 1
44.2392 70.2027 31.3275 1483 2
47.4263 69.7697 31.4314 3294 2
45.4653 67.5695 31.324 25034 1
45.9488 69.6089 29.1747 3300 1
49.8649 68.2251 30.7568 2338 1
52.3009 68.3167 30.1516 2427 1
51.9037 70.406 29.0581 2431 1
50.4698 68.3722 27.9425 1488 2
53.5262 68.4124 27.7336 19710 2
53.5239 66.1252 29.2113 2381 2
54.2657 70.2971 30.5399 1533 2
55.5179 67.8694 29.4948 2425 1
54.1403 67.8413 31.4879 2384 1
57.0115 70.0895 29.1409 19667 2
56.3685 68.6621 31.897 2439 2
61.0685 69.0228 29.217 19718 2
60.5045 67.3565 31.1662 20569 1
58.3589 67.3442 29.2718 25882 2
58.9087 69.3275 30.9112 25855 1
58.3818 66.9232 31.6738 20474 1
62.869 67.489 30.7862 20571 1
63.5633 69.9682 28.213 21779 1
65.1538 68.1836 29.4377 20529 2
63.3238 69.6933 30.8041 21735 1
65.702 68.7264 31.7427 19669 1
74.8859 32.0436 34.5956 10408 2
66.7115 70.3928 28.0161 21739 2
69.9374 66.5675 31.5489 23502 2
69.3859 66.457 28.6957 18736 2
68.0797 69.0855 30.4543 22589 2
74.4959 67.5273 31.7673 22592 2
70.64 68.936 29.7814 25816 1
71.4914 70.7964 28.2001 18741 1
71.6829 67.5164 28.1444 2396 1
73.2457 68.9968 29.429 2592 2
71.8781 68.2775 31.7298 25853 1
73.5913 70.2696 31.6991 21748 1
19.8513 73.4912 30.8493 54859 2
20.5011 72.7693 28.386 54023 2
17.8159 72.1525 28.4814 63105 1
22.0598 71.963 31.3503 62901 2
18.2453 74.7148 28.3893 63363 2
22.2535 74.5706 30.2613 63116 2
23.8372 72.0737 29.0701 63118 2
24.7506 71.2515 31.5982 63010 1
24.5853 74.0152 31.2965 4505 2
26.5615 72.6204 30.0341 48908 1
28.7345 72.4184 31.312 4507 1
29.8108 72.6232 28.9258 3587 2
27.7326 73.8089 27.9695 3538 1
29.7693 74.8425 44.2175 7254 2
33.8456 74.3419 28.4612 3590 1
34.9127 71.4878 28.825 21775 1
34.1091 73.1424 31.0845 3599 2
32.6875 72.2533 28.9027 4512 1
31.2578 72.0801 31.2061 3543 2
35.5117 70.9246 30.8884 3598 1
37.3374 70.9725 29.3712 3597 1
36.3188 73.7313 29.3958 3602 2
39.2754 72.586 30.7719 4520 2
74.8706 55.3991 48.096 23147 2
43.197 72.8652 28.0656 577 2
40.8894 70.9328 28.788 2374 2
42.3954 72.2189 30.7038 1532 2
40.9285 73.8276 28.8548 19699 1
43.6089 70.3678 28.6353 530 1
47.6579 70.9335 28.6925 1535 1
48.4566 73.2399 28.1154 633 2
45.2727 72.5569 30.1215 1487 2
47.9607 72.8712 30.8932 2424 2
46.0574 74.4178 28.2864 37850 1
72.4675 18.2674 50.5724 18364 1
52.304 74.6303 31.4997 22632 1
49.7979 70.9443 30.1131 2426 2
50.5846 73.7266 29.7546 21736 1
52.3202 72.2433 30.4363 22630 1
46.4335 27.9202 27.9664 41897 1
55.1236 74.511 30.9099 21729 1
54.5197 71.2738 28.161 25821 2
53.6177 73.8005 29.4713 21526 1
56.491 72.4243 30.394 21476 2
55.7862 73.9133 28.5156 12850 1
58.5031 74.3756 30.4485 20618 2
59.566 71.5924 29.5316 20619 2
60.8966 74.2598 28.6226 21788 2
58.0284 73.3368 28.109 25814 1
61.1783 73.4707 31.5353 21730 2
62.526 71.6951 29.7742 25856 1
65.5203 71.1335 30.4334 20824 2
63.976 74.1386 29.872 22588 2
63.4394 72.1968 31.8634 25778 1
69.1086 71.0215 29.0138 21740 1
67.0474 73.3199 28.8609 21781 2
70.2195 73.2578 28.0728 22688 2
68.2574 72.2992 31.1347 21737 2
71.179 71.3389 30.8718 22642 2
73.0018 72.3123 29.2175 21785 1
71.7933 74.0399 30.2538 25817 1
73.724 74.3434 28.2557 20834 2
74.1036 72.7824 31.5157 21791 2
20.5924 19.1445 34.9568 2716 2
18.0956 19.8286 33.2159 59349 2
20.8969 20.3267 32.4625 25064 1
19.2958 22.2411 34.1388 20051 2
22.1494 21.6756 34.6846 1841 2
23.1886 19.116 33.1688 20009 2
24.8621 21.7915 33.2409 24990 2
23.6512 19.1441 36.0069 3701 2
25.8304 18.474 33.9848 784 2
25.2221 22.1911 35.5953 2770 2
27.2574 20.6973 34.9738 2772 1
27.7907 20.3701 32.3798 2717 2
29.0721 18.607 34.5179 1847 2
29.1869 21.8501 34.654 2776 1
30.8243 19.9155 33.5042 1891 2
33.107 18.8516 32.6872 23637 2
33.477 21.1047 34.2421 2775 2
32.6184 18.8085 35.536 987 1
35.1367 19.5322 36.1944 3660 2
31.1433 20.818 36.2227 3653 2
35.6608 19.2585 32.229 20120 1
38.8243 19.7363 32.8028 21910 2
36.3262 21.1335 34.0663 1900 2
39.3728 21.5151 34.7029 3662 2
38.1717 19.2232 35.9906 3663 2
36.8006 18.2835 34.0854 3659 1
42.0031 20.1761 33.9458 22582 2
43.8512 18.3139 36.3809 3667 2
41.0162 19.2167 36.0021 25771 1
41.7527 22.6838 35.4972 3717 1
44.6747 19.7644 34.2907 12875 1
45.703 21.5062 36.0769 2791 2
47.5967 20.0187 33.9224 23264 2
48.7168 21.7782 35.9826 2736 2
50.173 21.3327 33.9598 21895 1
51.6674 19.1986 34.2603 3670 2
49.4276 19.2208 35.7898 22528 1
52.9863 21.8049 33.8645 2785 2
56.9362 19.4289 32.3938 11602 2
53.4448 19.9045 35.9028 21898 1
55.1063 21.1603 32.7095 23127 1
56.1051 21.2221 35.0857 22564 2
54.4619 18.7053 33.8309 22533 2
57.7823 21.7459 33.1949 23632 1
58.2024 19.7308 35.4218 21893 2
59.3397 20.0526 33.1223 20993 1
60.508 21.7711 34.6827 20141 2
60.9912 18.8145 34.5835 22527 2
70.5717 18.3283 35.3945 12892 2
62.0837 20.676 32.4159 38322 2
64.93 20.2341 33.2396 12897 1
63.3995 20.8405 35.0938 25850 2
65.4441 19.0849 35.4789 31025 1
66.8704 21.2921 34.4056 11550 2
68.626 19.1016 33.4824 30802 2
69.5199 21.0833 34.9515 1659 1
71.5673 71.9502 74.2427 26052 1
18.2054 25.8433 27.8471 72780 2
57.313 45.1481 27.6995 25894 1
71.3391 20.244 33.222 22613 2
74.2856 22.3169 34.81 30808 2
72.4413 20.1273 35.6251 12506 1
71.6183 22.2091 35.0523 11516 1
17.8182 72.7291 37.9479 62804 2