ITEM: TIMESTEP    
155000     
ITEM: NUMBER OF ATOMS  
77888     
ITEM: BOX BOUNDS pp pp pp
17.607 132.393    
18.0782 131.922    
26.5812 123.419    
ITEM: ATOMS x y z id type
19.8669 20.4156 27.3276 72779 2
19.1662 19.4681 29.8399 1881 2
21.5544 22.2373 28.4025 977 2
19.9557 21.9364 30.452 1887 1
18.4335 22.6782 28.5233 1928 2
22.3218 19.2715 29.2163 1839 2
25.4039 19.6617 30.2283 22628 1
24.7158 20.1149 28.1135 926 1
22.7877 21.3709 30.6954 1848 1
24.4858 22.6406 29.1668 25024 2
19.1603 69.9564 26.7035 54856 2
17.7576 68.9436 29.7495 55780 1
28.2944 18.7491 27.566 72824 1
30.4237 20.1725 29.1712 20062 2
27.3245 21.1588 28.3777 1846 2
29.9011 22.4646 27.7802 1895 1
28.0986 18.3057 71.0855 15476 1
33.4586 20.4623 28.9067 43709 1
32.1122 21.3538 30.8364 25026 1
34.7705 20.7854 30.5628 2726 1
34.252 21.8013 26.7675 19151 1
34.0642 18.8021 26.7274 24988 2
17.9391 53.5087 34.8655 56308 1
74.8798 32.9894 74.7299 27490 1
36.1496 20.3387 28.0447 1851 2
39.2409 20.8823 27.9546 22537 2
37.3767 21.3831 30.4418 1899 2
40.064 18.3598 27.5153 1904 1
38.1283 18.4473 29.2547 22536 2
41.239 19.2794 29.7692 1854 2
44.0127 18.6943 30.4049 23128 2
41.7556 19.955 27.0782 43666 1
41.8082 22.5674 28.7044 40934 2
39.9889 21.0868 30.6751 3657 1
43.4277 21.7534 26.4927 43668 1
43.3359 20.4648 28.489 21871 1
45.3714 19.1755 27.6046 1099 2
47.8939 20.6151 28.0787 40834 2
46.9009 18.769 30.1498 22576 2
48.0413 21.6567 30.3244 1908 1
50.6884 19.102 27.2301 38521 2
50.2672 21.8428 27.4481 40893 1
52.821 20.1872 30.4177 22574 1
50.1198 20.0128 30.0203 22529 2
52.7255 21.0269 27.9629 38365 2
55.9997 18.6036 27.3965 21944 1
55.1198 19.9879 29.2619 12513 1
55.4187 21.6276 27.1113 39988 2
56.9928 21.4394 29.5345 13500 1
17.6403 32.6073 70.2742 65130 2
60.573 21.7202 27.3876 31298 2
60.9084 18.9661 29.6115 19184 2
59.6512 21.7265 30.3158 31285 2
60.7174 19.1338 27.1972 31004 1
58.2172 19.8799 27.9758 38509 2
57.5763 19.0806 31.0001 11602 2
65.0167 21.5381 29.3299 21892 2
62.8368 20.5191 28.4629 31021 1
64.6637 19.4394 27.2837 30371 1
64.2573 18.647 29.8775 30999 2
18.2559 57.9091 27.944 63187 2
67.0613 19.2139 28.1935 31023 2
69.7414 20.9993 30.325 19245 2
67.8291 21.7193 28.5776 31293 1
69.4869 19.502 27.2027 30997 1
67.1103 20.3653 30.8108 20998 1
70.242 21.9789 27.3809 31019 2
70.3751 18.3484 30.1933 38366 1
74.5583 19.5916 28.2903 31289 2
71.9376 20.3815 29.2036 30996 2
74.0085 21.8208 30.4076 12413 2
72.7484 47.9715 26.759 19445 2
17.8218 57.4767 32.3983 54542 2
19.9816 26.9437 27.2744 970 1
20.1677 25.0499 29.2299 1885 2
22.0502 26.3635 28.0086 52493 1
28.2349 18.54 30.4674 1845 2
22.9622 24.3405 27.7849 25062 1
23.2845 25.4635 29.7262 1888 1
25.7537 24.9743 29.1744 1945 1
25.064 26.8382 27.8007 25061 2
26.7754 23.0068 30.2928 1884 1
28.1357 24.3488 27.9674 1943 2
30.5697 25.4099 29.4799 40920 2
29.6953 22.8302 30.5678 1944 2
32.3463 23.0618 28.8741 989 2
33.5304 25.7539 30.0091 1035 2
33.737 24.6842 26.9014 1999 2
35.1502 23.197 29.4135 25027 2
35.9297 25.3316 27.8975 40922 1
36.7893 25.5053 30.3127 2729 2
37.0781 23.0569 27.0445 40928 2
39.2016 23.4985 29.465 3770 2
38.289 25.8073 27.385 43667 2
40.6148 25.2226 28.0737 1956 1
41.6384 25.0192 30.2297 2782 1
43.6427 24.6201 28.2247 41801 1
39.6017 26.75 30.2606 1958 2
26.1878 18.0557 28.7206 23170 1
43.8291 23.5595 30.4127 22532 1
45.4917 22.3928 28.7326 43705 2
46.2801 25.1607 27.9389 40939 2
46.8806 23.9344 30.3522 1153 1
44.6547 26.0783 30.1358 2837 2
50.9945 22.4762 30.4623 1110 2
49.1522 23.8483 28.7352 40989 2
52.2455 23.8296 27.6897 19180 2
50.9317 26.1959 28.7887 2020 2
54.3684 22.6833 29.9247 23176 2
53.6072 26.0223 28.8356 23642 1
55.4927 24.3635 27.7338 40025 2
55.3994 25.1077 30.2508 40030 1
57.1307 23.5719 30.4015 23172 1
57.5985 26.0657 28.8543 18330 2
57.9148 23.1563 27.8225 38629 2
59.4347 24.3745 30.0261 20148 1
60.492 24.755 27.7207 199 2
63.1146 22.7719 26.951 30803 1
62.2897 23.0838 29.5228 19285 2
64.6789 24.9222 30.3276 20106 2
64.8739 23.7275 28.1822 18327 1
62.8187 26.1712 28.0655 19229 2
65.6072 26.4144 28.2747 18337 1
69.4006 23.7433 29.643 1065 2
67.3871 25.4405 29.6206 19241 1
67.4934 24.1391 27.3683 31294 2
70.3778 25.0138 27.0188 44061 2
67.0156 23.1589 30.8308 31002 2
69.4618 26.9823 29.9705 19186 2
73.2934 25.2773 27.6497 44079 1
72.2173 23.1904 28.8335 12457 1
71.6822 25.4038 29.655 30290 1
74.0634 24.6865 29.7214 43162 1
74.8157 22.6667 27.6992 39972 2
18.1299 27.2749 28.8683 63548 1
19.3444 29.4083 27.5664 1933 2
21.6773 30.9282 29.2825 1071 2
18.2613 29.6749 30.2419 1936 2
20.8362 28.0085 30.0681 63546 2
23.2526 27.7437 29.5801 63545 1
24.3009 29.6155 28.4323 1023 2
25.6868 27.5733 30.7507 1025 2
26.5658 30.0486 29.9465 40916 1
22.2242 28.9544 26.8749 975 2
26.7408 28.8482 27.6505 986 1
28.0688 27.3127 29.069 39954 2
28.5341 30.1889 28.4348 19240 1
30.2112 28.4183 28.8327 983 1
30.6223 29.8138 26.8397 1020 1
30.7881 31.1511 29.3399 1940 2
29.729 27.1888 31.2088 1949 1
30.0431 27.4904 26.5923 41796 1
33.1581 29.2773 28.1409 41885 2
32.2793 27.0358 28.0479 43811 2
31.9717 28.2554 30.8116 41845 2
33.0384 30.5653 30.4891 1033 1
35.4093 27.5064 28.8258 40926 2
37.76 28.33 28.69 2779 1
38.3279 30.3975 29.6733 2010 1
37.0728 28.5252 30.9253 1083 1
38.6452 29.9335 27.0301 1907 2
35.9586 29.3936 26.8549 2000 1
35.4769 30.3534 29.515 41893 2
40.1305 27.7353 27.8276 2836 1
42.5889 27.0585 28.3799 41842 2
43.6765 30.0307 28.608 43703 2
40.7713 29.6184 29.5791 40975 2
74.8533 69.2147 39.1237 23501 1
42.3596 27.9196 31.5274 2069 2
45.2617 27.6222 28.1149 40985 1
46.5942 29.9211 27.7751 41032 2
48.0641 27.3328 29.0185 40935 2
45.3314 28.8444 30.5271 41849 2
49.2695 29.7179 28.4899 1954 1
50.9391 28.2134 27.2398 42717 1
50.6634 28.6697 29.8194 2027 1
51.8178 30.7688 28.3424 1163 2
52.7498 28.2267 28.7189 40996 1
53.0078 29.1255 26.689 1105 1
55.1736 27.8474 30.2674 20144 2
54.8435 30.2715 28.4203 248 2
55.3393 27.4626 27.209 19382 2
59.9887 27.4073 28.0963 246 1
57.7731 29.3361 28.5513 19231 2
61.306 29.5575 27.3309 2792 2
60.1866 30.4951 30.0644 200 2
47.5134 64.1762 26.6976 528 2
61.6686 28.0855 29.5264 19243 1
64.1839 28.7904 28.146 19242 2
63.4269 30.5632 29.8511 20214 2
65.8103 30.14 31.4721 21002 2
68.4459 27.1489 27.6454 30998 2
66.4369 27.9737 30.0762 12515 2
67.0622 29.8385 28.128 30833 2
70.3371 29.3565 29.0741 43818 1
69.8675 29.1599 26.6738 44057 1
74.4374 27.2546 29.2515 30993 2
72.856 29.5405 29.2534 43804 1
71.7244 27.4086 27.8406 18339 2
71.6815 30.8341 26.6744 43793 2
71.9793 27.4772 30.8664 18336 1
74.2772 29.7552 27.1931 39105 2
74.7026 31.2644 29.6126 43989 1
18.0218 34.709 29.3766 1017 2
20.7874 33.5517 28.0639 1060 2
19.6478 32.6004 30.4621 1934 2
17.7507 32.1568 28.0885 63536 2
20.5998 31.4091 26.7922 72807 1
20.5557 35.2759 29.9811 63543 1
74.7762 58.0157 69.0772 28419 1
74.9285 39.7956 68.0387 29358 2
24.5959 31.7745 30.1315 63681 2
23.8883 34.3236 28.7561 43702 1
22.3831 33.8202 30.2696 1069 1
23.5018 31.9922 27.245 72814 2
26.1084 33.4547 29.3059 1070 1
26.4488 31.4765 27.4928 40917 2
28.1534 32.0318 29.7735 40965 1
28.4799 34.1979 27.8634 1031 2
29.9341 33.5536 30.0138 2916 1
29.5174 31.8879 26.9718 979 1
27.7217 34.58 30.6342 1989 1
34.6659 33.6557 29.5286 24974 2
33.3684 31.8919 28.4665 984 1
31.6747 34.1531 28.3131 1029 2
53.5158 18.2062 28.4363 2787 2
36.1394 31.9799 27.1585 1077 2
38.8878 32.9096 28.1618 1199 2
36.4493 35.1185 27.5502 41937 2
37.1045 32.6084 29.9307 1080 1
38.8001 35.1726 29.971 20283 2
39.4469 35.369 27.2749 19202 1
41.1389 31.4042 27.3595 42701 1
41.1194 34.4022 28.9116 2002 1
42.1184 32.1828 29.6165 2004 2
43.3644 32.5372 26.9191 41848 2
42.4607 35.7501 30.0787 2944 1
48.1935 31.7413 28.9417 2942 1
44.4319 34.3004 28.9761 2990 2
47.4476 34.3101 28.5786 2067 2
45.781 31.8821 29.7231 43700 2
46.241 35.5938 26.6946 1197 1
46.2355 32.6896 26.6908 197 2
50.1409 33.1598 29.1252 237 2
51.5251 33.2538 27.0656 291 1
52.4227 32.499 30.3057 2902 1
23.7438 74.9054 74.6907 28826 2
52.4171 35.2265 29.7417 2022 2
56.4525 34.4632 27.8548 19334 1
54.1126 33.2087 28.0506 20251 2
55.3896 34.029 30.1315 1208 1
54.67 31.7329 30.6327 249 1
57.1525 32.2296 29.5128 2077 2
74.5917 55.9541 67.8053 28438 1
59.4025 31.5589 27.6557 1109 1
58.9908 34.1524 27.6708 241 2
59.5861 33.0369 29.854 19233 1
57.6237 34.8737 29.9786 19235 1
60.3843 35.5057 29.6484 2121 2
61.9618 35.2171 26.6163 1111 2
61.8057 32.4629 28.2436 1112 2
62.9472 35.2875 29.1875 43165 1
64.6567 31.6619 27.4173 18380 1
63.9714 33.221 29.2947 19341 1
64.8612 34.8241 27.4283 19232 2
65.6534 34.791 30.4093 20256 2
69.3227 31.1057 27.9711 20162 1
66.5279 32.3922 29.4219 19289 2
67.4464 32.3472 27.1554 19288 1
69.3081 33.3266 28.6065 19293 1
67.5322 34.7755 27.4926 20215 1
73.6897 32.3921 27.9221 19297 1
71.5395 31.8023 29.4167 19246 2
73.5133 35.1282 28.1147 43988 2
71.4385 33.6789 27.7009 18438 1
74.6092 33.7671 30.2308 19301 2
71.6271 34.4435 30.5607 19295 2
19.007 36.2372 27.4438 74330 1
19.7676 37.3824 29.375 63542 1
21.799 38.556 30.7207 1979 2
22.3686 36.5328 28.5791 1988 2
24.6784 38.5254 28.5969 2036 2
25.4745 36.091 30.0335 1075 2
24.468 36.3574 27.0197 2034 1
22.502 39.6645 28.2564 2045 1
29.6674 36.4026 29.8407 1074 2
27.104 36.7959 27.808 41015 2
29.574 39.4195 28.5594 1028 2
27.5916 38.5501 30.0677 1122 2
30.1085 36.7423 27.0671 1027 2
26.9316 39.7836 27.2924 41016 2
32.1735 39.1628 26.9555 1135 2
34.9291 37.9488 29.2155 2829 2
32.1487 37.6872 28.9246 1079 1
33.7673 35.8695 28.2588 41936 1
32.6432 36.0246 30.7841 1997 2
33.3462 39.4836 30.722 20156 2
30.7602 38.9097 31.161 2870 2
36.2464 35.9864 30.3076 1995 2
38.0903 37.5679 27.9996 41068 2
37.6461 38.4914 30.5729 2061 2
40.5995 36.8798 28.869 40988 1
42.5926 38.9229 27.1205 1204 2
42.9283 37.8665 29.5382 2066 1
40.1134 39.5217 28.9216 41984 2
42.6011 35.9458 27.2885 41024 2
44.7841 36.8533 28.0909 1159 1
45.2406 38.809 29.1044 41031 1
47.5007 37.003 28.6958 330 2
46.8005 38.7814 30.9274 25017 1
48.1126 40.0338 28.7089 2119 2
45.1886 36.5392 30.6876 2995 2
75.0258 25.4159 69.9543 28710 2
49.2084 38.1368 30.4682 1213 1
49.9035 35.9563 29.3077 41035 1
52.1354 36.077 27.1856 1155 2
51.9278 38.0016 29.578 1162 2
49.7041 37.8988 27.4945 40108 2
53.574 38.9899 27.4338 18473 2
56.1709 38.7121 27.7539 41085 1
55.3475 36.6434 29.3902 20297 2
54.7703 39.0367 29.8766 388 1
54.9497 36.1324 26.5996 44000 2
57.4285 39.4687 30.1828 18430 2
57.9625 36.9542 27.7949 288 2
61.1049 38.1203 27.3323 18381 2
59.7271 38.0288 29.4778 18376 1
58.7146 39.9968 27.4995 19282 2
62.2771 37.968 30.2179 19286 2
63.8317 37.1229 28.1648 1119 1
64.8906 37.1027 30.3633 20213 1
66.1616 39.5402 30.7831 20260 1
64.5137 39.452 29.1839 44031 1
17.8406 50.5919 32.8408 48757 1
68.0632 34.9254 29.7055 19339 1
66.7604 37.1121 28.3085 19281 2
69.0143 38.2179 28.5918 19290 1
68.4919 39.4299 30.4474 163 1
70.2471 35.9063 28.0062 19349 2
70.6465 38.4483 27.039 18383 1
71.128 39.1881 29.9279 18437 2
72.3292 36.7953 29.9906 25899 1
73.9675 38.6569 30.6428 19352 2
72.7221 37.6945 27.9184 18386 1
74.3853 39.4982 28.2412 18489 1
25.2047 74.6956 27.6888 63005 2
19.6153 39.894 28.7069 63537 2
19.0235 42.5897 29.9031 63648 1
19.9137 42.3854 27.566 63678 1
21.0573 41.2879 30.4776 63529 1
21.1866 44.1511 29.447 63528 2
21.9332 41.8586 28.5328 21093 1
23.4576 40.6922 30.1401 2039 1
24.4107 41.7167 27.5501 41066 2
23.8705 43.2988 29.8953 63091 2
26.2704 41.2984 29.828 2037 2
26.2659 43.9277 29.0117 2969 1
28.3202 42.3769 27.9054 43701 2
29.5417 41.6228 30.4712 25055 2
30.52 41.6925 26.6047 41883 2
34.5701 40.2985 27.7231 1998 2
30.9965 43.642 28.7635 2090 2
32.0283 41.066 28.9247 41941 1
33.9767 42.7844 28.4734 2051 2
37.5345 40.2577 27.7888 41072 2
38.3469 42.1074 30.0076 1202 1
36.8893 43.8905 28.7104 41939 2
39.2647 42.503 27.6425 3133 2
35.8572 40.9083 30.2096 2053 2
36.2759 42.2481 26.7264 2056 1
41.9277 41.4843 27.7446 1200 1
41.0732 42.2987 30.2573 1198 2
43.1739 40.4093 29.4936 25047 1
43.8299 43.0604 28.8691 1251 2
44.727 40.9305 27.4932 25049 1
46.6447 42.7038 28.0062 1254 2
45.7206 41.4456 30.3032 25018 2
44.6962 44.4522 31.1964 19458 2
48.8901 42.3808 29.7025 2113 1
51.0449 40.2015 28.0552 290 1
51.3412 42.7545 28.8915 289 2
50.4599 40.5035 30.7281 2074 2
28.4962 18.0849 54.1841 6454 2
53.0983 40.8811 29.3899 20299 1
53.0294 41.4834 27.1336 1167 1
53.4975 43.9266 27.7547 1307 1
55.66 41.4325 28.2294 18427 2
53.9979 42.9868 29.7689 39218 1
56.5706 43.734 30.0881 19337 2
58.0651 42.96 26.9059 1350 2
58.192 41.8101 29.4017 18378 1
60.5095 40.7581 29.5241 20206 2
59.9791 43.3409 28.6524 1255 1
62.35 42.8125 28.5929 18479 1
62.5811 40.3132 28.2169 18379 1
64.6664 41.8974 29.8794 19338 2
64.5454 43.9851 28.1651 18435 1
17.6742 59.897 66.1707 11368 1
66.6949 40.0884 28.1125 18433 2
66.9608 42.8132 28.1145 19384 1
69.6531 41.1197 28.4064 18439 2
68.9059 43.5329 29.2617 19396 1
69.1589 43.6908 26.6417 18436 2
72.2035 40.35 27.6625 18443 1
71.0662 43.7669 29.5519 19389 1
71.9871 41.6875 29.5408 20353 1
74.6083 41.6023 30.0757 20361 2
72.074 42.945 27.1411 19401 2
73.3855 44.1631 29.2231 2141 1
18.6521 44.7569 28.3892 63282 2
18.6972 47.2593 29.3302 63280 1
21.349 46.786 28.1416 53468 2
20.4832 46.3073 30.5299 48662 1
23.9627 45.2106 27.6119 63650 2
23.7266 47.8152 28.5923 2088 1
25.8297 46.1396 30.0548 2044 2
23.0861 46.2567 30.544 63083 2
26.2774 48.5967 28.7814 63281 2
28.4746 44.5161 30.3501 2971 2
27.3359 46.0609 27.2624 41064 2
29.8372 46.1135 28.2561 2049 1
28.3599 47.1149 29.7349 1131 1
28.7823 48.4983 28.0787 41062 1
30.912 46.3436 30.3552 2046 1
31.2817 48.4142 28.8521 41946 2
32.7642 45.9801 27.9875 2157 2
34.7767 48.2717 28.9557 2095 2
35.0291 45.526 29.7559 3952 1
32.878 48.4701 26.8731 2092 1
32.8944 44.6245 30.3384 2979 1
33.3041 47.0144 30.8249 2922 1
39.2826 44.3535 29.9446 2156 1
39.0287 45.7431 27.4054 41124 2
36.3101 46.2524 27.7073 41990 1
37.6981 46.7964 29.8758 2159 2
37.2926 48.5166 27.8443 2155 1
41.3266 44.5081 28.5953 1249 1
40.5341 46.4477 29.7955 1292 1
43.2961 45.6551 28.9782 2162 1
41.9752 47.0572 27.1394 1293 2
42.7905 47.6191 30.5303 25009 2
17.6681 71.7078 65.8737 10795 2
47.2292 44.4658 30.5752 1253 2
44.8449 47.6373 27.7313 2169 2
45.7107 45.0783 28.3942 381 1
45.3203 46.7657 30.1027 21219 1
47.4408 46.8149 29.0419 385 1
47.2584 48.6412 30.5242 2214 1
49.9977 47.182 27.2636 1305 2
49.0215 44.643 28.0805 340 2
51.8192 48.0659 29.8976 1345 1
49.5566 46.7566 30.3759 2208 2
51.5404 45.3619 29.5747 25040 2
47.8132 18.229 48.098 19688 2
52.8208 46.7328 27.5667 1298 2
54.7069 45.8235 29.5873 1306 2
56.0113 47.415 27.3953 19426 2
56.5787 47.9012 30.8244 21280 2
55.65 44.3971 27.5583 1264 1
53.9237 47.9307 31.1514 3089 1
58.2436 45.743 28.6558 1303 2
59.4579 44.496 30.7159 25046 1
60.9251 48.25 28.4709 2172 2
61.6379 45.6874 28.8938 20338 2
62.9014 47.3467 30.4071 259 1
63.7726 44.6195 30.4281 20304 1
64.5497 46.6066 28.2586 19386 2
63.0209 49.1239 26.9375 1274 1
66.0099 47.337 30.5466 25875 1
66.4504 44.6861 30.036 21284 2
67.6029 45.8313 28.2784 21192 2
68.9463 47.6009 30.2651 19439 2
66.7758 48.42 28.6274 25042 1
68.9774 48.7373 27.2301 18476 2
70.5556 45.9682 28.1303 19436 2
72.9852 45.551 27.0705 18542 1
74.3893 46.506 28.9622 20313 2
74.858 56.0791 38.5134 21392 1
19.2376 49.2914 28.0911 63274 2
17.9763 51.9075 28.1562 54461 1
21.3754 49.1749 30.0898 48858 2
20.2214 52.3621 29.8357 63060 2
18.3967 50.5801 30.3973 63275 2
24.0286 50.1287 29.2465 63527 1
25.5314 51.3414 27.3449 2085 2
22.4185 51.5776 28.4437 63486 1
25.5603 52.2508 30.035 63483 2
22.3408 49.4755 26.9306 48669 2
24.9239 74.9713 62.422 9825 1
28.0647 50.9183 28.637 24951 2
30.8304 51.023 29.289 40237 1
26.8703 50.3247 30.8542 2091 1
74.8095 20.2213 43.297 8497 1
32.9958 50.4048 28.3892 41115 1
34.9675 51.0089 29.6128 41120 1
32.5255 52.8997 28.6928 2048 2
74.8548 38.8579 38.2076 22057 1
39.9013 48.6767 28.9021 1294 2
37.4921 51.4553 28.4417 378 2
36.7929 49.5027 30.0256 63642 1
38.8766 50.5107 30.3888 1336 1
35.4447 53.2901 28.7861 41170 2
20.1482 51.6892 26.7231 63632 2
40.3556 52.1399 28.6729 1339 2
42.2264 49.7143 27.606 2200 2
43.6942 52.2084 27.8357 383 2
42.481 50.7331 30.468 2242 2
47.4178 49.2726 27.5419 41079 2
44.9013 49.7605 29.6832 1295 2
46.0681 51.5397 28.2367 394 1
47.7894 51.1635 30.3472 25836 2
45.2277 52.9503 30.4916 1389 2
48.5339 52.4536 27.6507 3092 2
49.9019 49.6436 29.0003 2213 2
52.0517 49.8027 27.3822 25001 2
50.779 52.4524 29.6932 4065 2
52.3738 50.3062 30.1113 1301 1
51.4776 52.2777 27.0387 436 1
54.3899 49.0549 28.744 19428 2
57.1634 50.3518 27.3074 1268 2
53.8055 52.0078 28.6945 25885 2
56.5069 50.8139 29.8103 25890 2
58.4081 48.3736 28.7701 19470 1
59.3985 50.6503 29.0983 3150 1
60.4001 52.8012 29.7051 19379 1
58.5272 49.2661 30.9078 1310 1
61.3809 49.9615 30.835 20342 2
58.155 52.6964 28.7383 1267 1
61.8949 51.3244 28.181 19483 2
64.1889 49.2974 29.3186 18534 2
64.5149 51.4426 27.9253 20397 1
64.0071 51.7159 30.5761 20392 2
74.9056 47.5365 34.6441 3018 1
67.1936 51.0008 28.3574 19482 2
69.5529 50.108 29.5298 1224 1
66.9394 50.4193 30.7599 20351 2
70.2427 52.4219 28.1735 19488 2
68.872 52.981 30.673 20391 2
73.358 74.7928 46.1023 24500 2
74.1976 49.0723 30.395 25005 2
71.6709 48.7414 28.9439 2268 2
73.5932 51.0319 28.0709 19532 2
71.7973 51.4724 30.5517 20394 2
74.1828 51.6584 30.9198 19485 1
18.9298 54.6309 27.9986 63500 2
21.5128 54.1168 27.3287 63481 2
19.8134 55.4636 30.6612 63223 2
22.2318 54.5527 29.8401 63046 1
23.9269 53.6684 28.3691 63235 1
23.3956 56.2589 27.4687 63634 2
25.0791 55.6412 29.8857 63188 2
22.7472 56.7658 30.2728 63485 1
26.6532 57.1506 27.9883 63479 2
29.8639 52.6878 28.2421 2040 1
27.5089 54.1209 28.9379 2089 2
29.2079 56.8493 29.1457 3022 1
28.8306 55.1518 27.1423 40191 2
30.3854 54.6989 29.8893 40239 2
31.7311 55.6656 27.5792 42703 2
33.7092 55.3122 29.3427 41977 1
32.5587 54.8053 31.1837 2980 1
32.0503 57.4464 30.061 2982 2
34.843 56.0031 26.7528 41126 2
36.5708 55.4767 28.5147 477 1
38.2191 56.2858 30.1904 3191 2
38.4544 54.039 28.7523 19545 1
39.4269 55.84 27.104 1343 2
39.9201 53.9966 30.645 2201 1
42.4285 53.4997 30.1119 1388 2
40.9612 55.5851 29.1659 481 1
43.2796 56.105 30.5362 2289 2
43.5918 54.8145 28.3448 1386 1
42.4497 57.0048 26.9408 435 2
17.7517 46.3808 66.136 11171 2
45.8647 53.8983 28.2198 2240 1
47.5619 55.6838 27.4928 1348 2
45.8163 55.5353 30.0283 1347 1
48.1252 54.2917 30.3828 1297 2
45.169 57.1434 28.092 1390 2
47.0233 57.3825 29.9102 1393 1
49.8315 54.6271 28.474 19565 1
49.4964 57.101 29.3032 20463 2
51.4923 56.9149 27.5938 1399 1
52.2307 55.6634 29.9658 1397 2
52.2633 54.2758 27.8673 1352 1
54.3627 54.4351 29.1066 19469 1
54.0209 56.3346 27.1673 20435 2
54.5815 56.9399 29.7006 19657 1
55.8753 52.8503 27.529 19473 1
56.5342 55.1995 28.2488 19517 1
56.5229 54.1217 30.625 25867 2
60.3795 53.7762 27.1687 20390 2
59.0324 55.0567 29.8223 25887 2
58.5625 55.7199 27.2845 18630 1
61.3786 56.1875 28.7607 25865 1
74.6795 24.1116 74.8545 28165 2
62.6978 53.9758 29.4992 19476 2
65.8844 53.6504 28.9397 19486 2
64.2084 56.5409 28.259 19570 2
63.6514 53.8056 26.9025 18633 2
64.8879 55.7444 30.9879 19478 2
66.8493 56.4099 28.6973 19585 1
68.5262 54.5332 28.2982 19523 1
69.1673 57.1508 27.0839 19586 2
67.5755 55.4509 30.6102 20445 1
74.7063 55.4171 30.7279 20446 1
70.8071 55.1951 29.4148 19524 2
73.065 53.9397 30.4109 20447 1
72.7404 53.5042 28.1269 20402 1
73.6698 56.2709 28.2077 20444 2
72.1383 56.4455 31.1824 19588 2
20.843 57.0846 28.6728 48680 2
20.7871 59.3735 27.1602 63438 1
19.0312 60.2454 28.7649 63040 1
19.1556 58.4388 30.413 63185 1
21.6231 59.9908 29.859 63183 2
74.3497 72.7831 73.2896 25193 2
23.5335 59.1423 28.1275 63433 2
25.4185 58.7562 30.3462 53648 2
25.9724 61.3671 29.7094 63042 1
25.9785 59.9218 27.905 63410 1
28.0247 59.4556 29.574 63272 2
29.6683 60.9334 27.9668 53557 1
30.3027 58.4379 27.447 25023 2
30.8384 60.1675 29.9128 3012 1
34.9654 57.8398 29.6858 428 2
33.3084 57.9469 27.8067 41981 1
33.1007 59.9867 30.2689 24941 1
32.401 60.5117 27.8059 1382 2
35.4647 60.1956 28.4832 24999 2
37.4035 57.7078 27.6044 1338 2
37.6339 59.161 30.4449 1385 2
38.7498 60.4868 28.5868 24937 2
40.4221 58.2689 29.3728 429 2
40.9126 61.5622 29.3293 19607 1
43.2322 58.4706 29.285 1387 1
42.1384 60.1173 27.5473 479 2
43.1433 60.7743 30.6763 1441 2
40.0154 58.5172 26.7787 41125 1
45.3472 60.3243 28.9635 1445 2
46.9862 59.5303 30.7631 2294 1
47.9447 61.3089 28.5332 1444 1
47.6191 58.6967 27.7183 1447 2
52.3311 61.1606 27.4213 2342 1
50.211 59.7783 27.981 19569 2
52.4527 58.6009 29.4537 1398 2
51.2267 60.9509 30.338 25035 1
49.5116 59.0448 30.683 3201 2
48.5848 61.8658 31.0671 2387 2
53.5321 61.1764 29.5813 24996 1
54.8063 59.3187 27.8186 20473 2
55.9408 61.1771 29.6356 25862 1
54.6632 61.9208 27.5117 18770 1
55.1824 59.1069 30.9761 20470 2
57.0911 57.5292 29.0976 448 2
57.8426 60.4426 27.893 19618 2
59.7748 57.9302 30.2663 444 2
60.2056 60.266 29.0821 20476 1
59.6564 57.9802 27.2925 19575 2
61.9756 58.5501 28.2682 19572 1
64.2136 59.5262 29.0142 19520 1
62.5532 61.2075 29.9212 19623 2
65.7114 61.6597 30.1428 20528 2
62.8506 58.1238 30.8179 20428 2
63.8664 61.7815 27.0986 19580 2
65.9914 58.3038 31.0486 19578 2
69.0089 57.5365 30.1556 19626 2
66.9325 61.5051 27.3087 546 2
66.712 58.9424 28.2323 1420 2
69.6952 60.3602 28.3899 20487 2
67.8194 60.2492 30.3095 20483 1
71.2255 57.7599 28.8439 20488 1
74.6534 61.1048 29.8922 20497 2
72.9979 59.5445 28.2582 20485 2
74.022 58.0043 30.5854 20489 2
71.7113 61.5167 26.8996 19632 1
71.4616 59.5076 31.0501 20537 2
71.8083 61.7107 29.4279 21396 1
20.6873 62.1612 28.0367 63425 2
20.4039 65.4922 28.0979 54635 2
18.6619 63.4518 26.8884 53783 1
19.7661 64.0563 30.4105 63146 2
17.7093 65.2182 28.6283 55588 1
22.0386 62.4877 30.6684 63233 1
23.8574 62.1688 28.5704 54632 2
25.4508 64.8799 28.9899 63028 2
22.6894 64.7218 29.3975 48872 1
23.727 66.5466 30.3816 55685 1
74.7934 35.7367 36.9997 2976 1
51.2661 44.6183 26.7138 2120 1
28.9813 61.9339 30.2572 48774 1
27.4167 62.608 27.9363 63227 2
27.9026 65.4676 27.1303 5799 2
29.41 64.7405 29.6636 63176 2
27.1876 63.3949 30.4454 63043 1
30.7258 65.4582 26.8706 5309 2
30.9018 63.0388 28.1974 24954 2
34.045 62.5843 29.7901 3025 2
33.9099 63.7011 27.2672 19499 2
32.5474 64.8503 29.3062 2284 1
36.718 62.0643 29.9022 20458 1
36.7397 62.4986 27.4634 2288 2
38.8951 65.4871 28.3043 2328 2
36.1637 64.7 29.4447 3184 2
39.0101 63.2876 30.1763 1384 2
39.5677 63.0796 27.5919 2286 1
38.4475 66.3829 30.6995 2332 1
35.9426 66.1057 26.9095 24997 2
41.7773 63.9618 29.1707 1439 2
40.6467 65.7032 30.6458 2331 1
43.7521 62.5265 28.1333 1391 1
41.7739 62.5882 26.9224 25906 1
43.886 63.3333 30.7179 1438 1
45.9077 62.1259 26.9513 1395 1
44.4456 65.255 28.1123 1442 2
46.1683 63.2626 29.4109 1443 2
47.5658 66.1391 29.803 19614 2
45.1996 65.5651 30.6596 19652 1
41.7557 29.17 26.5906 1897 1
48.7626 63.7145 29.1721 25036 1
51.4965 63.3372 29.0593 19617 2
49.9163 65.9032 27.9529 1446 2
49.9457 62.4075 26.8385 19660 2
50.6627 65.9847 30.428 2388 2
52.9594 66.1789 28.1548 2381 2
54.1443 63.7805 28.597 19665 1
55.994 65.3905 30.0405 2430 2
53.0358 65.2309 30.4918 1490 1
56.9601 63.377 28.2146 20521 2
17.5994 65.1161 38.61 62909 1
61.0843 65.5764 28.0701 19670 2
58.7275 64.9306 29.5995 20522 1
59.8294 62.8503 28.0885 18729 2
17.652 53.2121 39.3758 56309 1
62.4683 63.5212 28.5498 25860 1
65.3131 63.6869 28.156 19625 1
64.004 65.6525 28.7511 19624 1
64.2336 63.9253 30.7251 20575 2
29.2699 18.2403 42.1194 10448 1
66.7679 65.6693 29.3875 21433 2
67.5505 64.3224 27.2464 602 1
67.8456 62.9891 29.1225 20533 1
70.2638 63.6561 28.1914 20527 2
69.3437 65.0537 30.2325 25854 1
70.1044 66.449 30.8947 23502 2
73.6699 63.2073 28.0198 19679 2
72.2191 65.9211 28.9228 21693 2
71.4464 64.1315 30.6995 19639 1
73.9328 63.8687 30.6895 22549 2
71.8165 73.1159 73.231 15179 2
18.8065 67.6312 28.1188 54678 1
21.3125 68.199 27.7726 63142 1
21.0726 67.3332 30.3339 63177 2
18.4253 66.7211 30.3217 50692 1
20.1973 70.3219 29.4315 54810 2
17.6396 46.6837 54.6814 8464 2
75.0036 56.8074 49.5973 5906 1
21.933 70.5538 27.489 63128 1
23.0543 66.6645 28.0864 63141 1
23.3106 69.2833 29.5941 54677 2
25.0721 67.717 28.4967 63140 1
25.8156 69.8595 28.5706 63124 1
27.7193 67.5144 29.4124 63144 2
26.8566 68.4239 26.9897 55682 1
29.375 67.8843 27.4589 1383 1
28.7193 70.1962 28.4281 63139 2
27.0712 70.4924 30.8195 4452 2
30.2411 69.4592 30.7768 63039 2
31.217 67.1921 29.3885 63037 2
33.4216 66.3246 27.5537 24853 1
31.8834 68.6029 27.0341 63014 2
34.3889 68.3425 28.0164 48819 1
32.9728 69.7525 29.699 4408 2
34.3067 67.0181 30.0761 5806 2
35.8857 69.7411 29.6155 3598 1
37.16 67.9082 28.8636 2373 2
38.5638 70.2509 29.3494 2419 1
74.5281 71.3174 38.3804 23499 1
42.0009 66.4497 28.5735 572 1
40.2204 68.231 29.4557 1482 2
42.6443 68.6586 28.3299 579 1
43.1706 67.5482 30.7085 2420 2
42.322 69.953 30.3134 1485 1
40.3626 67.4958 27.0778 478 1
49.4372 41.8914 26.7257 41038 2
46.7265 66.5489 27.3282 525 1
45.4854 68.4008 28.5197 578 2
47.8574 69.4461 30.2867 3294 2
48.158 68.4382 27.8556 1528 1
44.9895 70.6879 30.5861 1483 2
49.9527 68.3159 29.4079 2338 1
52.2615 68.2963 29.2912 2427 1
50.6163 68.7776 26.8442 1488 2
52.2191 70.384 28.0864 2431 1
51.6723 70.2882 30.9768 24995 2
54.4805 70.2473 29.6478 1533 2
55.7075 67.8353 28.5333 2425 1
54.075 67.4896 30.6561 2384 1
56.7206 68.8372 30.6499 2439 2
53.7488 68.451 26.9902 19710 2
25.3559 63.9811 26.6385 63474 1
57.7258 69.8257 27.9554 19667 2
61.0089 69.0286 28.0438 19718 2
59.9873 67.9658 30.1838 20569 1
58.1755 67.0461 28.2894 25882 2
61.3842 70.6505 30.8083 20570 2
58.8686 70.3903 30.1376 25855 1
63.0417 67.1346 26.7929 18779 2
62.304 67.3161 29.7134 20571 1
63.65 69.7998 27.1149 21779 1
65.5273 67.975 28.2927 20529 2
63.3731 69.2736 29.538 21735 1
65.8169 68.9951 30.6361 19669 1
60.5948 74.7832 37.4121 23539 2
69.1686 66.443 27.8938 18736 2
68.0294 69.1818 29.1312 22589 2
70.4399 70.3929 27.9162 18741 1
70.7067 68.4345 28.9139 25816 1
73.2676 68.9172 28.1584 2592 2
72.3599 68.0029 30.3724 25853 1
74.5665 69.7538 30.676 21748 1
71.0991 67.9758 26.632 2396 1
41.9224 74.8449 45.4629 8123 2
19.4353 73.3609 29.5852 54859 2
18.002 74.7423 27.0802 63363 2
20.312 72.7046 27.2405 54023 2
22.8034 64.2153 26.8065 63600 2
22.1941 74.5091 28.8525 63116 2
22.1326 72.1149 30.4846 62901 2
23.8707 72.056 27.7654 63118 2
24.7952 71.6188 30.2549 63010 1
24.495 74.2276 30.0989 4505 2
38.6439 73.0874 26.9097 22511 2
26.8255 72.664 29.0457 48908 1
27.6171 74.1687 26.9221 3538 1
28.7802 72.3213 30.335 4507 1
26.5967 71.4896 26.7118 63125 2
29.592 72.8861 27.9 3587 2
34.7176 71.6358 28.3651 21775 1
31.2293 70.8986 28.2934 4458 1
33.7833 73.6343 29.8817 3599 2
32.5739 72.6573 27.7862 4512 1
34.756 71.3729 30.7976 3544 1
31.3054 72.2622 30.6012 3543 2
74.758 54.3899 61.7924 29664 2
37.1045 71.6843 28.4131 3597 1
39.5762 72.801 29.6842 4520 2
35.9107 74.179 27.6918 3602 2
36.6025 73.4991 30.631 23876 2
43.8072 70.8659 28.2996 530 1
42.9223 72.7645 26.7756 577 2
41.0737 70.9297 27.7551 2374 2
42.4463 72.6524 29.8941 1532 2
41.004 74.3038 27.8501 19699 1
46.7854 70.9125 28.3626 3300 1
45.3545 73.1173 28.721 1487 2
47.8249 72.5474 30.0515 2424 2
48.2791 72.943 26.655 633 2
49.8293 71.0294 28.7123 2426 2
49.9382 73.6432 28.562 21736 1
52.0539 72.3768 29.4577 22630 1
52.5664 74.5979 30.6243 22632 1
51.7351 72.8034 26.6948 632 2
54.605 71.4937 27.2659 25821 2
54.0486 73.538 28.8982 21526 1
55.8941 74.5672 29.8676 21729 1
56.8571 72.2597 29.3733 21476 2
55.8715 73.7106 27.3497 12850 1
22.6596 74.9497 41.3405 5410 1
58.7246 74.6335 29.6318 20618 2
59.8195 72.0357 28.3596 20619 2
60.7757 74.3113 27.0661 21788 2
58.146 73.5147 26.9667 25814 1
61.4681 73.5612 30.2861 21730 2
62.5451 71.5126 28.4964 25856 1
65.3478 71.2424 28.9981 20824 2
63.6377 73.9641 28.3079 22588 2
63.6204 72.4535 30.5689 25778 1
64.1092 74.7532 30.5972 23542 1
70.2245 72.7667 26.9261 22688 2
66.6447 73.08 30.3994 22638 2
69.2999 71.9499 29.8674 21737 2
66.4153 73.8349 27.4144 21781 2
67.869 71.4649 27.9198 21740 1
68.8582 74.8023 28.8331 21787 2
71.8549 70.7375 30.234 22642 2
72.5709 71.6803 27.9021 21785 1
71.6889 73.6583 29.2563 25817 1
73.868 73.8869 27.587 20834 2
74.0798 72.7334 30.3068 21791 2
21.281 19.1738 34.0745 2716 2
18.3465 19.3548 32.541 59349 2
20.8743 20.2429 31.7964 25064 1
19.4481 22.039 33.2032 20051 2
23.6645 18.9515 32.0993 20009 2
25.1597 21.5962 32.0605 24990 2
24.2216 20.4192 34.9652 3701 2
22.5301 21.8487 33.4463 1841 2
26.2456 18.7759 32.8746 784 2
26.8913 20.9613 34.0549 2772 1
27.7836 20.8028 31.3684 2717 2
28.7813 18.6703 33.9844 1847 2
29.2079 21.7337 33.4731 2776 1
30.5312 19.7104 32.2876 1891 2
33.0047 18.7335 31.1177 23637 2
33.6368 20.9216 32.9937 2775 2
31.3664 22.5202 32.8054 936 1
31.452 20.6828 34.8378 3653 2
36.1592 18.9518 31.2909 20120 1
38.8519 18.823 31.9345 21910 2
36.4234 20.6448 33.2302 1900 2
38.8719 19.623 34.796 3663 2
38.8302 21.8412 33.1431 3662 2
74.814 30.2876 63.6933 29401 1
42.9298 21.2689 30.6497 3665 1
41.4615 19.9689 32.8392 22582 2
41.1597 21.9292 34.5737 3717 1
44.1548 18.3493 35.0082 3667 2
41.6399 19.2166 35.3416 25771 1
44.1795 19.9823 33.022 12875 1
46.0395 20.9093 34.8676 2791 2
48.0085 19.8102 32.6261 23264 2
45.7008 21.3294 31.5493 4627 2
45.7012 18.1571 32.8814 22534 1
47.1988 18.2812 35.1305 21060 2
48.7962 22.0228 34.7517 2736 2
50.2891 21.2545 32.7943 21895 1
51.6889 19.0682 32.793 3670 2
49.8883 19.5784 34.5065 22528 1
51.7017 21.8481 35.1918 22570 2
53.4156 19.9735 34.3854 21898 1
53.2931 21.6267 32.4712 2785 2
55.7019 21.0723 31.3442 23127 1
55.9319 20.2756 34.0421 22564 2
54.5877 18.4913 31.619 22533 2
57.8047 21.5154 32.2563 23632 1
58.2638 19.1336 34.1171 21893 2
59.7381 19.6903 32.0133 20993 1
60.2049 21.5565 33.7842 20141 2
61.3118 18.1502 33.6995 22527 2
57.5468 22.4314 34.575 12459 1
18.038 25.0278 26.9107 72780 2
62.3338 20.5238 31.4937 38322 2
64.9312 20.2289 31.6692 12897 1
63.3383 20.7071 34.1445 25850 2
65.256 19.0502 34.5032 31025 1
66.7205 21.0414 33.4163 11550 2
69.0571 19.2492 32.5075 30802 2
70.0389 20.5363 34.5609 1659 1
39.6025 23.7212 26.6222 2790 1
71.8003 20.0128 32.238 22613 2
74.2962 21.5495 33.4698 30808 2
72.6351 19.664 34.708 12506 1
71.6894 22.1088 34.0217 11516 1