ITEM: TIMESTEP    
5000     
ITEM: NUMBER OF ATOMS  
77888     
ITEM: BOX BOUNDS pp pp pp
17.607 132.393    
18.0782 131.922    
17.9862 132.014    
ITEM: ATOMS x y z id type
20.3506 18.4343 21.0588 1839 2
18.9243 21.1425 19.8268 72779 2
19.9961 18.4483 18.3926 20011 1
21.9867 20.5104 18.8411 72830 2
21.6757 21.5547 21.5983 977 2
18.6654 22.1126 22.3679 20053 1
23.0072 19.3013 21.1379 23170 1
25.267 18.2857 20.4711 22628 1
24.8859 20.6404 19.8564 72824 1
25.0078 19.8921 22.4033 1848 1
27.6269 21.3797 20.885 1846 2
30.4989 20.6769 21.1323 20062 2
30.1126 20.6773 18.5388 2719 1
27.7867 18.7504 19.2691 22548 2
28.374 18.5146 22.374 1845 2
32.8352 19.6781 19.1184 24988 2
33.159 21.5765 21.1252 43709 1
32.7394 18.872 22.322 23637 2
35.3312 19.8082 20.9637 1851 2
37.1446 20.6377 18.2432 22537 2
74.9038 54.7581 21.4968 25884 2
37.4829 22.1234 21.0229 1899 2
39.3745 22.2681 18.899 2790 1
39.6543 19.783 20.5456 1854 2
42.1163 21.7235 19.3321 40934 2
42.1143 18.6128 18.7554 23153 2
43.351 19.6483 21.4477 23128 2
41.1756 21.5762 21.873 3665 1
45.0043 20.129 18.8584 1099 2
47.911 20.1741 19.9634 40834 2
45.0849 22.554 20.9531 43705 2
52.6997 18.2357 18.966 2787 2
49.8451 21.9133 18.7559 40893 1
50.9998 19.9224 20.8405 22529 2
48.8112 21.4566 22.2083 1908 1
54.0886 21.2647 20.3129 23176 2
56.5355 20.0891 20.7986 13500 1
55.3088 18.6151 19.5112 21944 1
56.2756 22.1571 22.0599 23172 1
53.6354 18.6596 21.5366 12513 1
63.5469 58.1637 18.0762 19582 1
57.9656 19.7226 18.3841 38509 2
58.829 21.5371 21.1179 31285 2
61.1339 20.318 19.4646 31298 2
58.9238 18.3783 20.9714 19184 2
64.4163 20.9779 19.5717 21892 2
63.959 20.7318 22.2823 20998 1
64.076 18.2013 20.9256 30999 2
62.9993 18.5656 18.4221 31021 1
66.5161 18.5535 18.7207 31023 2
66.623 19.1415 22.2617 30802 2
68.0035 20.9458 20.0748 19245 2
23.5081 59.3443 18.271 63184 1
32.6548 75.0928 42.8807 7259 1
70.2528 21.7247 22.1031 22672 2
73.8172 20.7432 18.9579 31289 2
73.1581 19.0025 21.5888 21403 2
70.9642 19.7756 19.8003 30996 2
20.2169 23.7439 20.7267 25062 1
19.3569 25.5306 19.3418 970 1
21.8954 25.4855 18.9543 52493 1
24.589 22.5905 21.9677 25024 2
25.611 22.8824 19.1368 926 1
23.184 23.16 19.617 1942 1
22.6014 24.4692 21.4175 1888 1
25.2847 25.5863 22.2338 1025 2
24.8126 25.684 19.0329 25061 2
27.1152 24.7435 20.3432 1945 1
29.5212 23.6535 21.2302 1895 1
30.0793 25.9004 19.403 40920 2
28.5371 23.0864 18.3873 1943 2
55.575 18.1758 32.5165 20408 1
31.5179 22.9665 19.2896 989 2
33.1061 25.6343 20.0158 1035 2
34.9682 22.8 19.4369 40928 2
31.2081 25.3698 21.8858 25060 1
68.8175 18.2733 20.4101 38366 1
31.6916 23.0508 22.2546 25026 1
36.5387 25.2278 20.4886 2729 2
39.2549 26.2087 19.6994 2836 1
39.8888 23.8433 21.0639 3770 2
67.6225 74.9364 63.1152 29880 2
41.0868 24.6563 18.8954 1956 1
42.5122 23.7167 21.2232 2782 1
43.3731 24.1314 18.9857 41801 1
42.8387 26.4909 18.3714 1897 1
41.9599 26.6798 21.008 41842 2
48.1005 23.3462 20.2162 40989 2
45.2513 25.7555 19.8448 40939 2
46.401 24.6489 22.1511 1153 1
17.7936 65.8436 59.841 24265 1
48.4576 26.0939 18.8399 23205 2
51.2392 22.766 21.0704 1110 2
50.2012 25.7778 21.4679 2020 2
51.1347 24.4572 18.6477 19180 2
53.5063 26.2011 21.5572 20144 2
53.6656 23.9727 19.7773 23642 1
54.035 23.3836 21.9542 40030 1
56.5251 22.4907 19.1474 38629 2
56.4679 24.9535 21.0343 18330 2
54.8423 26.5296 18.7001 19382 2
59.3335 24.1249 21.0331 20148 1
58.7223 25.6206 19.1564 19227 1
59.1093 26.5835 21.5292 246 1
61.5012 25.3274 19.8318 19229 2
59.5079 22.9775 18.3384 199 2
61.7685 22.48 21.2794 19285 2
62.3008 22.962 18.5997 30803 1
64.3494 24.076 20.2869 20106 2
65.4785 26.2374 18.9772 18337 1
66.2812 22.577 21.931 31002 2
69.1182 23.9119 20.3234 1065 2
66.802 25.4836 21.2626 19241 1
68.2331 26.4788 18.6888 30998 2
66.5866 23.7345 18.2868 31294 2
73.1244 22.3813 21.6116 12413 2
71.231 22.4794 19.1764 12457 1
71.1337 25.2401 18.997 30290 1
72.8116 26.0849 20.9676 1076 2
73.2579 23.8465 19.3199 43162 1
20.7834 27.7472 19.5635 1933 2
21.058 30.5145 19.4583 1071 2
17.8782 27.6169 20.9196 1016 2
17.9688 30.1307 18.8347 63536 2
20.2183 29.3635 22.2167 63546 2
23.1261 26.8667 20.8921 63545 1
24.1071 28.9895 19.3684 1023 2
25.2704 28.4382 21.7576 40916 1
26.2394 30.8055 20.4515 20152 2
23.2186 30.431 21.9661 1018 2
27.3036 27.7116 19.9334 39954 2
30.2023 28.689 18.8386 983 1
27.8325 29.8908 18.3398 40965 1
29.6476 31.0732 20.2665 1940 2
30.7193 28.1947 21.5628 41845 2
32.5112 30.0484 19.462 41885 2
35.0882 28.256 20.3284 40926 2
33.0742 29.6064 22.0808 1033 1
35.2023 30.8808 22.0466 2010 1
37.4291 29.7112 19.3452 2000 1
37.7729 27.9391 20.8236 1083 1
37.6427 27.4482 18.3215 2779 1
40.0737 28.8918 19.4677 1907 2
41.0601 31.1101 20.5872 42701 1
43.0152 29.3794 18.9781 2001 2
42.9431 29.8792 22.1025 43703 2
47.5035 27.0797 21.8363 40935 2
44.5979 28.207 20.6549 40985 1
45.7442 30.8627 20.2602 41032 2
46.7559 28.4835 19.5113 41894 1
48.0702 29.773 21.7178 1954 1
48.5411 30.7651 18.5725 41898 2
49.3667 28.4457 20.0646 42717 1
50.5868 30.3277 20.8682 42715 1
51.7201 27.3172 19.3148 1165 2
52.2667 28.696 21.8719 40996 1
52.027 30.8024 18.7645 1163 2
53.8179 28.9112 20.0551 1105 1
57.0321 28.1069 20.2639 19231 2
55.4893 30.3201 18.384 248 2
53.3643 31.144 21.557 1164 2
59.5484 29.5938 21.7901 200 2
60.0407 28.147 19.0594 2792 2
58.3886 30.1953 19.2492 1109 1
61.3382 30.8941 19.2067 1112 2
61.3207 27.4695 21.5682 19243 1
63.8249 26.4965 22.0391 20151 2
63.1855 27.8607 19.2942 19242 2
64.4579 30.7941 20.4083 19289 2
62.7412 29.3983 22.5171 20214 2
69.5537 26.9352 21.4644 19186 2
66.2794 28.1303 20.9344 12515 2
67.3296 31.0467 19.9349 20162 1
68.6384 29.9237 22.2502 20158 2
68.7323 28.9987 19.643 43818 1
66.2559 29.0003 18.001 30833 2
70.9387 29.6367 20.9096 19294 1
73.7891 29.6135 21.2454 19300 2
72.7521 30.4088 18.7144 19297 1
74.1154 27.7353 19.2051 43804 1
71.2535 27.9766 18.9087 18339 2
71.9355 28.2111 22.5411 18336 1
18.9074 31.8714 21.0098 1017 2
21.4892 32.7572 21.3962 1980 1
20.4674 33.4034 18.4509 1060 2
20.6825 34.9301 20.6392 63543 1
17.9842 34.1696 19.5969 1121 1
23.5311 32.5656 19.52 63681 2
23.2163 35.1721 21.1541 1069 1
26.1199 34.6142 21.7376 1075 2
26.1499 33.1639 19.1681 1070 1
24.5582 35.0954 19.1098 43702 1
30.7312 34.3234 19.6652 1029 2
28.2722 33.3641 20.4908 1989 1
27.3133 35.5998 19.1126 41015 2
30.2936 33.4426 22.284 2916 1
29.2005 35.8258 21.9211 1074 2
31.1614 32.0506 18.0222 41022 1
33.4306 35.5359 19.9914 2829 2
32.791 32.3202 21.8061 24974 2
33.1353 32.9634 19.0022 984 1
35.229 31.3208 19.5577 41893 2
38.254 31.6237 20.901 1199 2
36.007 34.1422 20.0651 41937 2
38.5715 34.1399 19.1899 19202 1
38.5035 34.6887 22.1662 20283 2
40.6232 33.4885 20.6721 2002 1
43.1573 32.4321 19.6975 41848 2
42.459 35.3382 21.297 2990 2
43.7283 35.3315 18.7201 1159 1
41.1775 34.8336 18.4036 41024 2
46.0546 33.9851 19.9383 2067 2
47.9125 35.0139 21.8219 236 1
48.3074 32.2978 21.305 237 2
48.8526 34.5523 19.7878 41035 1
51.143 33.0365 20.7608 2022 2
50.2223 33.2478 18.1166 291 1
51.5157 35.4791 18.7765 1155 2
53.1775 35.0497 20.9436 1208 1
56.703 31.4191 21.1858 2077 2
54.908 33.595 21.8611 249 1
56.7423 34.1677 19.9052 19334 1
54.1141 33.1733 19.1851 20251 2
58.7986 34.706 21.5117 2121 2
59.2708 32.2997 20.3672 19233 1
61.1932 33.7854 19.6746 43165 1
59.0146 35.0795 18.6754 1119 1
61.7819 32.3353 22.0022 20212 2
57.769 32.5149 18.0514 241 2
65.824 31.8855 18.1766 19288 1
63.3122 35.4927 18.9978 19236 1
65.5651 34.3983 18.7601 20215 1
63.7141 33.5727 20.3795 19341 1
70.0328 31.1194 18.9675 19246 2
66.2518 33.1269 20.6632 19339 1
68.2377 33.7194 18.5004 19349 2
69.3662 32.9484 21.4883 19295 2
67.0163 35.5723 21.4831 19291 2
66.3393 31.3061 22.2041 19293 1
70.6987 34.6398 19.7957 25899 1
72.2696 32.2031 20.8388 19301 2
72.9361 35.2729 21.1338 19352 2
60.0114 71.8837 74.2373 26537 2
19.3938 36.1109 19.0214 63542 1
18.5795 36.8307 21.6233 63539 2
19.7578 39.9664 20.5634 63537 2
18.0133 38.1162 19.1633 63669 1
22.1277 36.3916 18.5803 1988 2
21.6339 37.4023 21.4329 1979 2
24.5653 37.593 20.2316 2036 2
22.2487 39.1365 19.4495 2045 1
23.2227 39.5171 22.305 2039 1
29.4592 37.4355 19.3147 1028 2
26.7231 38.7103 18.2934 41016 2
29.7982 40.1989 18.4875 41883 2
27.2096 37.9978 21.5268 1122 2
30.056 39.1594 21.9168 25055 2
31.7448 37.3072 20.8607 1079 1
32.431 39.774 20.2736 41941 1
34.6386 38.2628 20.8766 1998 2
34.5767 39.5909 18.4777 41071 1
32.2258 37.9823 18.0303 1135 2
37.3898 36.8525 19.7502 41068 2
39.3449 39.9865 18.391 42706 1
39.8973 38.8467 20.8044 41984 2
40.0109 36.2239 20.554 40988 1
42.5799 37.8127 19.6606 1204 2
42.2915 38.6707 22.2933 2066 1
45.0319 39.6932 19.2352 25049 1
44.7332 38.5199 21.5958 41031 1
45.6799 37.0726 19.4188 286 2
47.7606 37.5459 21.1803 330 2
47.6715 39.6054 18.499 41038 2
74.7626 32.5049 28.5039 21110 1
50.5682 36.0957 21.6124 1162 2
50.0973 37.9251 19.7695 290 1
52.9817 38.1358 19.8988 18473 2
51.3393 39.4498 22.194 2074 2
56.0436 35.6855 21.8693 19276 1
55.1779 36.241 19.2022 20297 2
55.8031 37.9895 21.2402 388 1
55.4054 39.7961 19.2604 18427 2
61.1186 36.6501 20.4213 19286 2
58.135 37.7561 19.911 18430 2
60.6521 39.204 18.7855 18379 1
60.2395 39.7278 21.469 20206 2
63.8692 35.7912 21.8104 19281 2
65.5669 36.736 19.3247 163 1
63.454 38.3953 19.2591 18433 2
66.1244 38.6654 21.1559 20305 2
63.2211 39.1161 21.9686 19338 2
66.4588 38.9662 18.1931 18436 2
68.7916 36.7083 19.2257 18437 2
69.4299 39.7405 19.8419 18439 2
68.6819 37.8912 21.7204 19340 1
70.0906 35.7551 22.2764 19345 2
72.7075 36.45 18.3442 18386 1
24.5362 18.1633 58.7482 9970 1
71.2637 37.5387 20.544 20353 1
74.7369 37.7842 19.0841 18489 1
72.7214 39.6843 19.6377 20361 2
73.6874 38.1883 22.0427 19402 2
20.4103 43.9064 18.6904 48570 2
18.1552 42.0503 20.4091 63648 1
20.4763 43.01 21.524 63528 2
18.9521 41.2951 18.2552 63678 1
22.1979 41.094 20.8338 21093 1
24.5874 40.7509 19.6526 41066 2
23.4222 43.6214 20.2495 63650 2
25.8601 42.719 21.2253 2969 1
40.3276 31.8168 18.2178 40978 2
27.5762 40.9171 20.0796 43701 2
28.2517 43.5072 20.6838 2049 1
30.7669 42.1552 20.7278 2090 2
29.6 44.2746 22.394 1131 1
32.3479 43.8262 19.1142 24950 1
34.1739 41.8804 20.5521 2051 2
32.563 44.2942 22.001 2157 2
36.837 40.2138 19.8049 41072 2
38.2762 40.8741 21.9493 1202 1
36.4627 42.8803 19.0719 42033 1
36.8136 43.4131 21.8377 41939 2
39.1684 42.584 19.8262 3133 2
39.6516 43.6164 22.4466 2156 1
43.3924 40.3727 20.8018 25047 1
41.3949 40.9302 19.6176 1200 1
41.7543 43.3356 18.7528 1249 1
43.6196 42.9831 20.8801 1251 2
46.4102 40.6592 21.366 2119 2
46.6333 43.6501 21.6727 1253 2
45.7409 42.4532 18.7737 1254 2
48.6795 42.6031 19.4544 340 2
48.9348 40.0249 20.9566 2113 1
50.8513 40.3317 18.8559 289 2
51.5291 43.0453 20.5919 25040 2
53.0848 40.8055 20.5664 20299 1
53.4803 42.3078 18.6709 1307 1
54.9555 42.273 20.8407 39218 1
57.3536 44.2857 21.5219 1303 2
55.9838 43.5871 18.6646 1350 2
57.6232 41.2964 20.851 19337 2
60.5293 41.6332 19.4301 18479 1
60.2885 43.1807 21.6062 20298 2
58.7025 43.384 18.9342 1255 1
19.659 18.2245 74.0434 52511 1
63.0183 43.8209 21.96 20304 1
62.6406 41.497 20.7071 18435 1
63.8885 43.7367 19.6126 19386 2
64.9272 40.8588 19.7547 19384 1
65.4433 42.0526 22.1648 21284 2
68.4572 46.0831 18.1856 18476 2
67.9607 40.2905 22.3221 19389 1
67.2796 41.3001 19.7864 19396 1
69.8218 43.1139 19.3222 19436 2
66.9678 44.0682 19.9967 21192 2
71.3143 41.4715 20.9547 2141 1
73.0511 43.0092 19.0111 18488 2
74.0144 41.5646 21.7548 19447 2
25.446 18.3994 49.7351 7347 1
18.0221 44.8666 20.3869 63282 2
21.5207 46.1226 20.668 53468 2
18.6964 47.8146 20.3492 63274 2
20.0286 46.4495 18.4188 53549 1
19.6174 46.2858 22.4687 48662 1
26.3922 44.3924 18.9524 41064 2
23.0777 48.713 20.8652 63527 1
24.9197 46.8349 20.2022 2085 2
30.3429 47.7718 18.6017 2922 1
27.8104 46.2311 21.4367 24951 2
27.643 47.1653 18.8763 2040 1
30.1259 48.5799 21.2011 2973 2
29.598 45.0523 18.5277 41946 2
30.432 45.953 20.919 2046 1
34.831 45.2534 20.0856 41070 2
32.2323 46.3385 19.2261 41115 1
34.1595 47.851 19.144 2092 1
33.0925 47.4082 21.7419 2095 2
37.6002 45.3182 19.389 41124 2
35.7858 47.3197 22.2485 63642 1
38.1312 47.3473 21.3141 2155 1
39.5367 47.9424 18.9948 1248 2
36.5291 47.9305 19.7555 41990 1
40.542 45.3469 20.6721 1293 2
40.6744 48.1334 21.8619 1294 2
43.5844 48.0423 20.4858 2169 2
42.9807 45.7583 21.7162 2162 1
42.9743 45.6948 19.0602 43750 1
45.2036 45.352 20.1034 1257 1
47.2967 45.0372 19.2556 381 1
47.0566 47.5636 20.3177 41079 2
45.2314 46.0512 22.4967 21219 1
49.0643 44.6533 21.9941 385 1
52.6205 45.0547 19.4098 1345 1
49.8333 47.3951 21.9657 394 1
49.9387 45.555 19.6682 1305 2
52.5719 47.3666 20.8636 19428 2
50.1309 48.2217 19.723 1351 1
54.2606 44.7457 21.6119 1306 2
54.8914 46.4682 18.9214 19426 2
56.4553 47.1416 21.8031 21280 2
61.0837 44.8525 19.3095 20338 2
57.9586 48.7884 20.2886 19470 1
59.6294 46.4019 21.7525 2172 2
58.0626 46.2365 19.144 20346 2
60.9013 48.0873 19.0615 19481 2
65.1221 44.861 21.7743 25875 1
63.2363 46.4899 18.5954 1274 1
62.6356 46.7124 21.527 18534 2
65.4665 46.9314 19.9901 20344 2
67.7994 48.2068 20.1294 25042 1
69.135 45.9942 21.0269 19439 2
17.8739 64.1725 68.2011 13287 1
71.6925 44.7182 21.3022 20313 2
71.4795 46.5714 18.6152 19445 2
74.3685 45.8914 19.4998 20354 2
72.4695 48.0696 20.5573 25871 1
74.6629 48.8051 19.3236 19492 1
21.7981 48.4936 18.5291 48669 2
18.5234 51.8317 20.3707 63500 2
20.594 49.9632 21.1878 63632 2
20.5967 51.5924 18.5196 63634 2
21.9094 52.9248 21.3502 63481 2
25.0737 49.7249 18.6381 2084 2
22.9308 50.997 19.718 63235 1
24.9329 52.8702 20.2455 63188 2
24.2395 50.8063 22.2361 63483 2
27.0894 49.6043 20.8641 2089 2
27.9001 52.9788 19.6282 24954 2
29.6128 50.6948 19.4743 41977 1
26.8875 52.0021 21.9512 3022 1
32.3357 50.0866 19.4592 41114 2
31.1884 52.741 20.499 43152 2
33.3533 52.5199 18.5467 41981 1
35.1104 49.9651 21.0077 378 2
34.1942 53.053 21.1118 41170 2
38.2789 50.2085 20.5026 18505 2
36.1926 52.2032 19.2813 428 2
38.9755 52.9463 20.8063 477 1
39.4626 51.9234 18.5426 25067 1
41.5929 50.5242 19.657 431 2
41.4661 52.5969 21.3481 19545 1
43.8055 52.7533 19.0592 435 2
43.8221 52.5823 21.6762 1386 1
47.3803 49.9364 18.4607 336 1
45.642 50.6167 20.696 383 2
46.4199 52.2804 18.5107 432 1
48.9389 50.6528 20.5099 3092 2
52.0847 49.6126 19.0327 436 1
50.843 52.3318 18.8923 1392 2
52.0459 50.5964 21.4154 25001 2
50.4166 53.0677 21.8149 19565 1
55.1344 49.3969 20.2298 1268 2
53.5938 51.5426 19.1814 1352 1
54.5366 51.8477 21.4379 19469 1
57.0277 51.5382 21.3053 1267 1
60.0396 49.1736 22.1282 20342 2
57.4255 50.6965 19.0327 3150 1
60.1605 51.2183 19.973 20390 2
57.8611 53.0453 19.3758 19517 1
59.1398 53.1806 21.6385 25865 1
65.5505 49.1614 21.4921 20397 1
63.2908 50.1738 19.7933 19483 2
64.8966 52.1956 21.4197 19486 2
62.6331 53.3419 19.5748 19570 2
65.694 53.2227 18.4914 19581 2
66.398 50.2759 18.9597 19482 2
69.9799 48.9027 19.7984 20352 1
68.1881 50.758 21.6024 19488 2
69.1538 51.9345 18.7503 19489 2
74.049 49.5779 21.6862 18592 1
72.2153 49.7525 18.4032 20400 2
71.5519 51.036 21.0447 19532 2
74.4142 51.7784 20.1525 18596 2
20.1418 54.2295 19.7711 53557 1
21.6263 56.561 21.0452 48680 2
19.2754 57.0054 18.9161 63468 2
22.2752 57.2316 18.506 63465 1
23.1783 54.7401 19.3126 63478 1
24.5422 57.3324 18.8625 63474 1
24.7363 56.177 21.2735 53648 2
34.2459 56.2726 21.8921 1382 2
35.1612 55.2006 18.8921 63057 2
38.0569 54.3959 18.5126 1338 2
36.977 54.8236 21.5081 376 2
39.4471 56.7941 20.4066 1385 2
42.6115 54.8649 21.5434 481 1
40.9764 54.2473 19.2195 429 2
43.26 55.8307 19.3759 19607 1
39.9401 54.8928 22.5551 3191 2
46.3476 53.1352 21.0926 438 1
45.631 55.125 19.1438 479 2
47.3654 56.2738 20.5846 1393 1
44.9678 57.1393 20.8356 1387 1
48.5033 53.9302 19.8612 1348 2
52.6342 53.4061 20.8858 1399 1
51.1413 55.262 20.0235 491 1
49.7471 57.5356 20.5204 1447 2
68.2706 59.472 18.2522 25903 2
55.3818 53.8499 19.7537 20435 2
53.4492 56.4348 20.3289 1398 2
56.5002 57.4827 19.5247 20473 2
56.7985 55.1434 22.1512 25887 2
60.2163 53.5769 18.8425 18630 1
58.8892 55.5584 20.0579 1401 2
60.9182 54.9243 21.3525 19572 1
61.5234 56.5057 18.827 19575 2
63.1795 54.4506 22.0782 19520 1
64.3282 55.316 19.8485 19577 1
65.3988 54.8386 21.8733 19585 1
62.667 57.1581 21.5691 19574 2
66.1364 57.4499 21.0988 1420 2
70.1577 54.4288 19.767 19584 1
67.4975 54.0666 20.372 19524 2
68.9088 56.7551 19.3899 19586 2
69.9704 53.4191 22.4836 20444 2
72.1073 52.931 18.3366 19526 2
72.308 53.9012 21.114 19533 1
72.5919 56.2906 19.4005 19535 2
70.9443 56.3137 21.8884 20485 2
74.4686 54.5028 18.6475 19531 1
19.4933 58.5797 21.1149 63438 1
20.8141 60.8808 21.1537 63410 1
20.9144 59.842 18.6711 63600 2
18.03 60.5196 19.9221 53700 2
23.3429 59.2286 20.8285 63433 2
17.8526 28.2251 27.8764 56033 2
36.8094 57.7342 20.4079 19499 2
38.6832 59.1375 21.7789 2286 1
39.6763 59.7816 19.1811 2288 2
42.2876 57.6955 21.1455 24937 2
42.2668 60.0225 19.5388 526 1
41.3248 60.4917 21.9885 1439 2
46.7936 58.0568 19.1577 1391 1
44.7573 60.0001 21.2913 1442 2
44.3312 58.5645 18.5054 1440 2
47.9503 60.2185 20.2411 1446 2
46.1917 60.7292 18.3385 525 1
52.1907 58.8177 19.8131 19616 1
49.8925 59.2612 18.4693 530 1
50.7679 60.6187 20.7925 25036 1
32.5672 74.7351 35.7593 4517 2
54.5386 58.765 21.2391 2342 1
53.5471 61.2715 20.9282 19660 2
56.1237 60.3778 20.3475 25862 1
54.7275 61.9633 18.2599 18770 1
56.9949 58.5626 22.4951 448 2
17.736 18.2057 36.5515 4552 2
57.8126 60.577 18.3641 18677 2
59.2767 58.6293 20.3301 19618 2
60.4606 61.0738 19.3599 19620 1
58.576 61.6213 21.5027 20521 2
61.9278 58.9804 19.7622 19621 1
61.7489 60.488 22.1524 18729 2
63.3239 61.3019 18.9437 18728 2
64.2157 59.264 20.576 19573 1
65.6187 59.1819 18.5954 18733 1
64.1401 61.5162 21.5611 1455 1
32.1335 18.2241 31.6727 3650 2
66.443 60.8977 20.583 546 2
69.4289 61.2506 19.8694 19631 1
68.8535 59.1469 21.6975 20487 2
74.2224 57.7583 21.9797 19593 2
70.9752 61.112 21.7243 19632 1
74.0111 59.0415 19.6429 19635 1
71.3112 59.2583 19.7071 25902 2
73.379 60.7251 21.3882 18692 1
72.4888 61.9519 19.2585 19589 1
19.9297 62.6436 18.9025 63179 1
20.7689 63.5025 21.1157 63141 1
17.9582 63.7536 20.477 54635 2
21.6438 65.0007 18.7944 63411 2
22.6361 62.1056 19.2528 63588 2
23.1517 64.8658 21.036 63144 2
43.151 62.0052 20.3519 572 1
41.1912 62.314 18.505 19546 2
41.3944 63.5036 21.6008 2328 2
43.9735 64.3847 19.8716 18753 2
45.6885 62.337 20.093 579 1
46.1387 64.0496 21.7889 18756 1
48.3491 63.2946 20.4428 578 2
46.5421 63.9864 18 577 2
51.1612 63.3315 19.9575 1487 2
52.4409 65.3465 18.113 1535 1
49.5834 65.5144 21.0069 19699 1
49.4547 65.8057 18.3478 631 2
56.5017 62.8546 20.0379 19665 1
54.3849 64.1158 19.6546 583 2
56.9346 66.0954 19.0714 19710 2
55.2676 63.7475 22.2451 1490 1
52.2926 66.1033 20.5476 632 2
57.8149 64.8485 21.8524 2430 2
58.8436 63.6337 19.0111 1453 2
60.7749 65.7096 20.555 25882 2
61.5375 62.8276 20.3961 19622 1
21.9066 74.9118 49.0207 8106 2
62.3786 64.345 18.5201 19668 1
65.0908 63.7499 19.7147 18779 2
63.3871 65.8851 20.5164 25901 1
63.0822 63.7289 22.3366 19670 2
65.6744 65.9728 22.2024 20571 1
63.3403 74.8311 29.3442 23537 1
66.4633 63.8346 21.6398 19624 1
68.3314 63.6178 18.7632 18737 2
68.3261 62.5797 21.3901 19629 1
68.7805 65.2882 21.9541 18736 2
70.1468 65.8749 19.2923 19628 2
70.5492 63.2896 20.6849 18742 1
72.706 64.5789 20.0175 1461 1
74.7339 63.3488 21.6095 19679 2
71.2838 63.8009 18.2158 18735 1
74.7217 66.3342 21.9917 21693 2
19.9606 74.8737 28.7811 25780 1
19.8289 66.4267 20.7226 48693 2
19.6066 69.0952 20.2421 63128 1
21.8712 69.6259 22.2693 55682 1
18.2552 68.1067 17.9452 54766 2
22.4024 67.9339 19.9992 54813 2
24.3807 70.7735 21.6565 63014 2
46.8308 66.1873 20.4786 1483 2
49.8407 68.2114 20.9059 1531 2
51.7723 67.8193 18.2039 21734 2
52.7952 68.9269 21.3501 19711 2
54.3001 67.3134 19.2866 1536 1
56.3461 69.1772 20.3108 25821 2
55.1999 66.691 22.0316 1533 2
58.9811 68.0086 18.7232 3391 2
61.019 68.8939 21.5645 19667 2
58.8545 70.3507 20.9744 2432 1
58.499 67.2987 21.175 2425 1
62.0197 67.5714 18.2816 19666 2
64.4095 68.5094 20.6235 19672 2
63.7081 70.3835 18.9662 21779 1
66.6802 66.2631 19.6583 19676 2
68.2456 68.6279 18.9582 21739 2
66.9373 68.1893 21.5381 25856 1
69.4155 67.8756 21.3628 25881 1
72.2068 67.3543 20.9565 2396 1
70.4625 70.0444 19.8397 21743 1
71.1379 68.0674 18.8567 21691 1
73.3939 69.9389 21.3744 2592 2
73.8395 67.2334 18.752 43679 2
19.9673 71.1161 21.5001 54814 1
21.8642 70.754 19.9098 63127 1
22.0928 72.0902 22.1441 63124 1
20.1559 73.6673 20.8213 63116 2
18.7339 71.4221 18.9905 54856 2
18.311 74.2519 18.6291 63370 1
22.8611 73.4348 19.6435 3585 2
24.8862 74.0822 22.1713 3587 2
27.1144 72.3982 22.5926 1383 1
21.6389 41.5633 17.8952 63278 2
60.8902 70.5667 19.1834 20865 2
59.7453 73.168 20.715 21778 2
65.177 74.132 20.733 21781 2
63.1989 73.1198 18.6609 20866 2
62.9494 71.4863 21.4849 21788 2
62.2448 74.3949 20.9741 21782 1
66.3521 70.817 20.1546 20824 2
68.6838 70.1631 21.5874 21740 1
68.6312 73.1227 20.677 21741 2
27.4433 74.7123 22.0788 63178 1
66.8668 74.6081 18.6691 20827 1
70.6552 71.7213 21.8919 18741 1
52.037 61.0413 18.0566 535 2
70.8567 69.143 22.5991 25816 1
71.0821 72.3644 19.0299 19673 1
72.7409 72.6096 20.7519 21785 1
73.3596 73.2437 18.429 43678 1
73.5396 74.6071 31.8313 25740 1
21.5972 21.6154 24.4709 25064 1
19.7918 19.811 23.5736 1881 2
18.4344 19.8772 26.8908 59349 2
21.4929 19.3174 26.3286 2716 2
22.6603 18.5547 23.7598 20009 2
24.1319 21.2025 24.8119 24990 2
25.5475 18.38 25.4681 784 2
26.2489 20.9451 26.2956 2772 1
27.0766 21.0215 23.7795 2717 2
28.4928 19.1378 25.7651 1847 2
28.7983 21.9722 25.6027 2776 1
30.7126 20.1756 24.0775 1891 2
33.1243 21.48 23.5618 987 1
33.0392 20.2264 26.2637 3653 2
34.8861 19.5608 23.9268 20120 1
37.9491 19.5878 23.1597 21910 2
39.1937 22.1393 23.1719 3657 1
35.5274 21.713 22.9292 2726 1
36.6386 21.191 25.3526 1900 2
38.7055 19.5573 26.5292 3663 2
36.4085 18.2945 25.1158 3659 1
39.3323 22.4758 25.9231 3662 2
41.0333 20.4176 24.2599 22582 2
43.2735 22.0071 23.1294 22532 1
43.7005 19.4398 24.1368 21871 1
43.0259 22.1223 26.019 2784 2
46.2809 20.1314 22.6297 22576 2
45.7944 20.4131 25.4398 12875 1
48.376 21.4648 25.7274 2736 2
49.2732 19.2538 23.5457 23264 2
50.5038 21.8027 23.8841 21895 1
51.9331 19.1859 25.3451 3670 2
51.6694 21.8628 26.5392 22570 2
49.5988 19.3685 26.453 22528 1
56.1402 20.1178 23.2735 23127 1
54.7181 20.2562 25.8569 22564 2
53.1736 20.9154 23.1471 2785 2
57.3681 20.7397 25.3205 23632 1
75.0022 74.0336 21.7282 20834 2
61.4364 19.5081 22.5623 38322 2
59.9213 19.3864 25.9254 22527 2
58.885 20.4172 23.5074 20993 1
60.5809 21.9772 23.764 20104 1
62.5082 20.7182 25.3513 25850 2
64.056 18.634 23.5936 12897 1
65.3051 20.7184 24.6321 11550 2
64.2587 18.4943 26.0623 31025 1
70.2303 19.1373 22.8436 22613 2
68.1274 21.3098 24.1672 12867 2
70.0429 20.1142 25.4715 11516 1
67.2748 19.3918 26.6081 30814 2
68.2797 18.3906 24.3951 1659 1
66.8153 21.9734 26.8366 12415 1
72.766 20.7584 24.2572 30808 2
71.8983 18.8364 26.1339 12506 1
74.4077 20.0221 26.243 12412 1
20.4944 26.2197 22.5803 1883 2
18.4811 24.4529 23.1923 1835 1
20.6903 23.5239 23.2074 1887 1
18.8644 22.2662 25.255 20051 2
20.1908 24.674 25.2881 1930 1
23.0097 24.2828 24.3458 1886 2
24.5667 26.5363 25.9271 976 2
26.1176 23.9551 24.7033 1889 2
29.486 22.533 23.3196 936 1
27.4168 23.5429 22.441 1884 1
28.4753 26.1127 22.5148 1944 2
28.9136 24.283 24.7455 2771 1
34.2031 24.0467 22.4237 25027 2
30.9239 26.0911 24.6272 1946 2
31.6115 23.1552 25.1767 2775 2
34.6271 23.1142 25.3619 1948 2
33.456 25.4502 25.2602 2778 1
39.1021 26.4502 22.4399 1958 2
37.1543 24.0137 23.4836 25025 2
36.2815 26.6511 22.5491 1951 1
39.1495 25.5903 25.2997 4664 2
37.1285 24.0849 26.2223 5526 1
36.1025 26.6753 25.3435 2828 2
41.293 23.9782 23.7878 23152 2
41.989 25.2081 26.4832 3759 2
44.0542 25.3144 22.878 2837 2
44.1358 26.2608 25.448 2006 1
45.774 22.8153 24.2232 4627 2
44.8493 24.2201 26.3288 21900 1
46.8194 25.853 24.7331 2786 2
47.3508 23.8376 26.7817 4629 1
48.7075 23.8522 23.2237 750 2
49.5538 26.4863 24.1087 2027 1
52.0842 24.118 23.549 2024 2
49.9811 24.3145 25.9075 1107 2
52.9702 24.1612 26.0645 21056 1
54.5144 26.3968 24.5497 40027 2
55.0436 23.1451 24.4784 30857 2
57.1208 24.7429 25.4292 2028 1
60.9599 25.0335 23.031 713 2
58.2613 23.4115 23.5141 20098 2
59.2755 22.5362 26.3005 20141 2
59.561 25.2651 25.4767 20201 1
61.6404 23.4011 25.4625 20096 1
57.4559 26.7309 23.4353 19234 2
64.0593 23.248 26.6366 25880 2
63.633 23.4323 23.4546 20100 2
65.9227 25.7609 23.9295 25879 2
63.0474 26.0005 25.1935 19684 2
66.2384 23.256 24.7738 12414 1
68.3732 23.6763 25.8834 20160 1
68.6657 24.593 23.3224 19196 2
68.8335 26.4805 25.7962 21054 2
60.6443 74.7074 74.0416 15125 1
71.3189 24.4244 22.5458 19299 1
70.878 22.9515 24.9448 1651 2
73.3505 23.6557 23.9542 20157 1
71.8407 26.238 24.552 20113 2
17.7631 30.9053 23.4835 53355 1
21.2791 27.0185 25.771 2763 2
17.8607 28.5039 23.3821 63548 1
19.4913 29.1249 25.2991 1936 2
21.0803 31.0776 26.1238 1982 1
22.2223 29.6805 24.4679 1929 1
26.2108 27.3421 23.7701 25059 1
23.2031 27.5251 23.4353 1885 2
25.0755 29.6149 24.6291 1941 2
27.9992 26.7236 25.7501 2769 2
27.6154 29.3945 22.5968 1947 2
28.0781 29.9169 25.5736 2817 2
29.4331 28.1862 24.0001 1949 1
30.8016 28.7261 26.4815 2864 2
30.2606 30.9193 23.4084 1950 2
33.5991 26.8787 22.8982 25028 2
31.8579 28.8146 23.9622 2872 1
34.4563 29.2603 24.0012 24982 1
33.3431 27.9955 25.7897 24984 1
32.8228 31.1045 25.3985 1993 2
36.9421 29.1219 23.1932 2831 2
38.9464 28.2098 24.767 2873 1
38.1775 29.7949 26.3605 2862 1
35.6033 29.6557 26.6093 3752 2
39.8965 29.444 22.4476 40975 2
42.841 28.3295 26.4102 2789 1
41.7725 27.4446 24.1395 2069 2
43.7406 30.2569 24.7301 3713 1
40.9461 30.2722 25.4477 2054 2
45.9394 30.7152 22.951 2942 1
45.0235 28.0554 23.3597 41849 2
45.5685 28.5163 26.5564 2984 2
47.8799 28.9251 24.5992 2072 2
48.6556 27.0081 26.5015 2893 1
51.9339 26.5785 26.5247 2898 2
51.7935 26.9679 23.64 42770 1
49.9368 28.5266 22.6932 2026 1
50.3632 28.6467 25.5954 3666 1
50.7739 31.1407 23.5461 25056 2
55.1891 28.7617 22.4649 1973 2
52.9082 29.1927 24.5494 23129 2
55.5286 28.9539 25.142 2071 1
54.5467 30.898 26.6396 2029 1
57.3187 27.2823 26.3202 3827 2
57.7063 30.1942 24.2669 20145 2
60.4104 27.8599 24.3127 25878 2
59.6101 29.4005 26.4414 2856 1
60.994 30.9245 24.5795 19238 2
63.3601 28.9245 25.166 20209 1
65.4064 27.597 26.3756 20207 2
65.5633 28.9481 23.7577 21002 2
65.1786 30.5586 26.7851 20150 2
62.4676 30.6818 26.8187 25846 1
67.8479 27.5202 23.4621 20216 1
70.1462 28.6975 24.0883 20159 1
67.9785 29.3986 25.8256 21044 2
74.2303 27.465 23.2285 12863 1
70.857 28.441 26.3329 20149 1
71.2413 30.7341 23.0103 19296 1
72.6002 29.3946 24.7503 19249 1
19.2915 34.3843 22.4741 2808 1
20.2205 32.1282 23.8199 1934 2
20.7912 33.9873 26.3978 1977 2
21.7802 34.8617 23.4052 1981 2
18.5039 31.4226 26.2516 2811 1
23.7909 33.2536 22.3395 1983 1
25.4662 31.741 22.9303 1986 1
23.18 32.3675 24.9235 2863 2
25.3247 34.4924 24.6352 2042 2
26.5244 32.1462 25.0844 63326 1
27.8489 32.1888 22.5986 1938 1
30.2403 31.7358 26.0066 3749 1
28.669 33.9577 24.5161 1990 2
32.3706 35.3772 22.7433 1997 2
31.7289 34.0458 25.2189 2908 2
34.1456 33.552 23.7357 3754 1
34.4263 33.1497 26.1014 21059 1
35.5427 31.6541 24.4273 4713 1
36.3567 33.094 22.5533 1080 1
38.3622 31.706 24.198 41895 2
36.8398 34.4175 24.9122 2931 2
36.7114 32.1659 26.644 1991 1
39.9711 34.3816 25.1565 284 2
41.054 32.5253 23.0123 2004 2
42.3637 34.7915 23.8345 2944 1
42.661 32.7363 25.5159 1149 2
44.1645 32.6212 22.6169 43700 2
46.018 31.5911 25.4965 24957 2
48.1971 31.5584 24.0029 2023 1
46.7673 33.3401 23.3137 1209 1
45.0562 34.1062 24.9466 21169 1
47.6149 34.5589 26.2001 2953 2
49.4709 34.1164 23.8161 2117 2
52.3726 31.8965 25.5634 2902 1
49.5458 31.5464 26.3468 1160 2
52.4905 34.012 23.4433 20248 2
50.9579 34.4264 26.4601 21177 2
56.7565 33.4346 25.9941 20255 2
54.7893 31.6352 24.1354 19326 2
55.0582 34.7217 24.2188 2123 1
56.9089 33.1632 23.2349 19235 1
57.4214 35.368 24.0668 19331 1
61.3232 34.9872 22.4273 20213 1
59.0013 32.1302 22.7438 18373 1
58.8159 31.9161 26.3164 21089 1
59.7289 34.125 24.4764 20155 2
61.2048 32.9931 26.5729 25877 1
64.5294 32.7642 22.5615 20210 1
63.7398 31.359 24.465 20257 1
62.8647 34.193 24.4456 20256 2
65.5398 33.217 25.4493 20302 1
65.3774 35.2869 24.0934 20208 1
69.1345 31.8788 24.0924 20153 1
66.8494 33.4819 23.2694 18372 1
67.4229 34.8901 25.7679 20265 1
66.7373 31.3787 24.5543 19344 1
70.1267 34.0592 26.2328 20211 1
69.054 34.3144 24.0466 19347 1
71.0036 31.2226 25.8817 1129 2
74.3148 31.6645 23.9092 19346 2
71.7476 33.5087 23.838 19350 2
73.4784 32.6302 26.2126 21104 1
72.8305 35.2465 26.1141 21150 2
74.7341 34.8559 23.6893 19355 2
19.269 36.2165 24.7166 63540 2
19.4379 38.8666 23.2058 63318 1
19.7627 40.1001 25.4615 63307 1
21.6519 38.1869 24.498 2911 2
23.2006 35.9704 25.1784 1072 1
24.5265 37.3158 23.2287 1985 2
25.5482 37.1838 26.3065 2047 2
28.1647 36.296 26.046 2914 1
27.1984 36.3579 23.8423 2041 1
27.6802 38.8981 24.7033 2918 2
30.2969 36.8784 24.5335 2870 2
35.4549 35.7609 22.7094 1995 2
34.1886 36.2058 25.6938 1996 2
32.511 38.4877 26.0032 3847 1
33.0406 38.3632 23.3706 20156 2
35.0906 38.8415 26.6192 3840 1
35.4718 38.5862 24.3856 2052 1
31.5411 36.2255 26.8462 3807 1
37.4144 38.0798 22.441 2061 2
37.6268 37.3123 25.5646 20236 2
39.0182 39.6673 24.432 2926 2
43.3044 36.225 25.801 4669 2
40.4082 36.8501 23.3493 41994 2
43.9368 37.8132 23.8107 2111 1
41.865 38.9981 25.0161 3037 2
45.273 35.6782 22.4561 2995 2
45.1309 39.0066 25.565 2068 1
46.3597 38.544 23.283 25017 1
47.9072 36.5133 23.7938 2070 1
45.9907 36.7416 25.0603 2954 1
47.8406 38.6141 25.9175 2114 2
48.7654 39.0958 23.2164 1213 1
50.6812 37.1912 24.3873 3047 2
52.2502 39.765 24.8167 20296 1
53.0391 35.9521 25.1844 2997 1
53.5316 37.0822 22.7818 25053 2
54.2178 38.3922 25.1406 3920 1
55.6607 36.402 26.3264 20341 2
56.3461 37.4605 23.6472 25006 1
59.0821 37.2757 22.6752 18376 1
61.2027 35.8515 26.2297 20202 1
57.6814 39.2283 22.6927 18378 1
58.7517 37.228 25.565 19284 2
61.7532 37.3423 23.9147 20259 2
59.9661 39.9382 24.5485 19378 2
64.8371 37.6727 23.8151 20260 1
63.8999 36.6755 26.3344 19336 2
63.3969 39.4827 25.1028 21147 1