ITEM: TIMESTEP    
60000     
ITEM: NUMBER OF ATOMS  
77888     
ITEM: BOX BOUNDS pp pp pp
17.607 132.393    
18.0782 131.922    
21.1377 128.862    
ITEM: ATOMS x y z id type
20.7669 18.9691 23.9438 1839 2
18.9247 20.9943 22.5877 72779 2
21.2873 22.0133 24.3205 977 2
20.4645 18.9405 21.3738 20011 1
17.8307 56.1647 21.4027 63180 2
22.4579 20.7361 21.7256 72830 2
23.3015 19.8205 24.3548 23170 1
25.0657 20.9242 22.9228 72824 1
23.9316 22.1872 24.7737 1848 1
25.615 18.6212 23.4279 22740 1
25.5313 20.1528 25.525 22628 1
29.2163 21.292 24.6059 20062 2
27.777 20.0912 22.0516 22548 2
27.9183 18.4975 25.3571 1845 2
30.5191 18.4878 23.6425 23216 2
30.6391 20.9414 22.2687 2719 1
33.3424 19.5617 21.6218 24988 2
32.1882 20.7427 24.1431 43709 1
34.779 20.7231 23.5288 1851 2
33.1689 18.4322 25.1522 23637 2
37.3385 20.8711 21.7021 22537 2
37.276 21.7372 25.0398 1899 2
39.1608 18.9749 21.9651 1904 1
37.1857 18.5112 23.8801 22536 2
39.6339 20.4808 24.0886 1854 2
42.5467 19.2442 24.6763 23128 2
42.2838 22.209 22.9702 40934 2
41.8753 18.1652 21.5242 23153 2
40.5156 20.7478 21.3151 43666 1
44.6773 20.2933 22.252 1099 2
47.6516 20.6189 22.7128 40834 2
45.7717 19.7479 25.2491 22576 2
47.7567 21.9873 24.9591 1908 1
50.6104 18.6705 21.961 38521 2
50.2503 21.617 22.0515 40893 1
49.6594 19.7847 24.6025 22529 2
52.2452 19.0886 24.8724 22574 1
53.0053 20.536 22.4953 38365 2
51.3503 22.3303 24.4654 1110 2
56.839 20.2791 23.8433 13500 1
55.4959 19.15 22.1016 21944 1
54.5319 19.6109 24.521 12513 1
54.4342 22.4452 24.1927 23176 2
60.4088 21.4024 22.2005 31298 2
59.2548 19.082 24.0078 19184 2
58.9971 21.8594 25.2593 31285 2
60.6363 18.7447 21.543 31004 1
57.8974 19.5802 21.1219 38509 2
64.5425 18.6397 24.1728 30999 2
64.8872 21.9044 23.7392 21892 2
62.8284 20.3055 22.8562 31021 1
64.8944 19.3555 21.535 30371 1
61.869 18.3078 23.8333 31001 1
66.8423 20.5807 25.122 20998 1
67.33 19.9517 22.5329 31023 2
69.4738 21.2968 24.7017 19245 2
70.1242 18.4666 24.7944 38366 1
67.365 22.4089 23.0922 31293 1
71.6198 74.8361 21.6741 20880 2
17.9563 21.8556 34.0844 49611 1
74.4502 19.4944 21.8428 31289 2
71.1725 20.3074 22.9498 30996 2
73.1194 18.4339 24.0103 21403 2
73.5513 21.6383 24.062 12413 2
20.9252 24.6993 23.7223 25062 1
19.7676 25.6038 21.8066 970 1
18.3227 23.8643 23.6052 1928 2
19.2357 26.0363 25.4353 1883 2
20.4967 23.2916 21.2012 19183 2
22.1191 26.2051 22.1461 52493 1
22.7677 26.0615 24.4202 1888 1
23.7113 23.7358 22.5443 25024 2
24.9967 26.4852 22.6411 25061 2
24.5766 24.7391 25.2487 1884 1
26.7472 25.488 24.7489 1945 1
26.5535 22.8419 24.321 1846 2
27.089 22.9432 21.5325 978 1
29.466 23.1113 22.8859 1895 1
29.372 24.9597 25.2031 1944 2
27.855 25.3211 22.0162 1943 2
30.7571 26.3158 23.2843 40920 2
31.4478 22.9361 25.0837 25026 1
32.5852 24.9844 25.1316 25060 1
32.7266 23.3245 22.8421 989 2
34.1193 26.2067 23.1081 1035 2
35.026 23.7357 25.2396 25027 2
36.0521 23.5388 22.4248 40928 2
37.0337 25.8065 23.8734 2729 2
39.481 23.7751 24.3552 3770 2
27.2179 74.9906 49.6128 8118 2
23.695 18.4096 29.4927 2718 1
39.3743 22.6421 21.9144 2790 1
39.763 26.4306 23.1177 2836 1
41.1476 24.8533 22.2047 1956 1
42.0152 24.5992 24.5383 2782 1
43.5995 24.5538 22.7542 41801 1
45.4525 22.9248 23.8792 43705 2
46.1704 25.696 22.5404 40939 2
47.2078 24.887 24.8813 1153 1
44.7303 25.8465 25.3732 2837 2
48.6428 23.6273 22.9544 40989 2
50.1529 26.2171 23.881 2020 2
51.6874 23.9293 21.9668 19180 2
52.4407 26.8671 21.8102 1165 2
33.5606 18.2143 28.2176 22538 2
52.6572 24.8453 24.1187 23642 1
54.9767 24.8786 25.1458 40030 1
54.8448 24.6913 22.2561 40025 2
56.8314 23.2753 25.4146 23172 1
57.4714 25.6609 23.9837 18330 2
57.4264 22.695 22.7817 38629 2
59.5955 24.5788 25.0874 20148 1
60.0432 24.5983 22.1524 199 2
59.9968 26.9346 23.5932 246 1
67.1451 63.775 21.7651 602 1
62.7569 26.5151 22.8904 19229 2
62.2071 23.3552 24.0488 19285 2
64.8654 25.1178 24.8055 20106 2
64.0253 24.3313 22.3192 18327 1
18.8826 74.9344 22.0498 63363 2
69.5639 22.4679 21.4839 31019 2
67.0818 23.4778 25.4417 31002 2
69.4886 24.6484 23.8379 1065 2
67.3856 26.1125 24.3586 19241 1
67.0083 24.7165 21.7477 31294 2
71.6774 23.2586 23.0465 12457 1
71.9048 25.9511 22.7371 30290 1
73.6333 24.5594 23.6499 43162 1
72.1407 25.62 25.3784 19299 1
74.3017 26.8523 22.0627 30993 2
71.577 22.894 25.8899 22672 2
20.3201 27.9882 23.4313 1933 2
18.1821 30.1324 23.9995 63536 2
19.9871 30.3972 21.8768 72807 1
21.1914 30.2816 25.5973 63546 2
23.0135 28.5928 24.0367 63545 1
25.3348 29.7616 22.6451 1023 2
22.2743 31.1142 23.0069 1071 2
25.1279 27.7775 25.4847 1025 2
24.4034 30.8507 25.4581 1018 2
22.6922 28.7418 21.2307 975 2
27.1471 30.2449 24.1714 40916 1
27.9907 27.7918 23.9479 39954 2
30.4868 29.2212 23.1753 983 1
28.4067 29.5425 21.938 19240 1
65.7845 17.9037 32.2213 12510 2
30.0427 27.9209 25.6233 1949 1
32.591 28.2857 24.6988 41845 2
33.0874 29.8073 22.1973 41885 2
33.7896 30.7095 24.6137 1033 1
35.6602 28.7506 24.2923 40926 2
37.4279 30.8008 24.6877 2010 1
37.6688 29.9857 22.3633 2000 1
38.3299 28.3859 24.0359 1083 1
38.2627 27.6358 21.7208 2779 1
42.174 27.2782 24.0374 41842 2
40.6535 29.2972 22.0086 1907 2
43.2944 30.2026 24.0132 43703 2
40.2464 29.9394 24.8734 40975 2
43.1088 27.2583 21.6662 1897 1
69.4388 17.9591 68.4598 29528 1
47.596 27.6393 24.4566 40935 2
44.7335 27.9065 23.4097 40985 1
46.3055 30.1056 22.845 41032 2
47.9592 27.9986 22.121 41894 1
47.4448 30.9512 25.1552 2942 1
49.4858 29.6405 24.3105 1954 1
50.2612 28.4201 22.0861 42717 1
51.8626 28.7922 23.9551 40996 1
52.0457 30.7451 21.8496 1163 2
51.2189 31.3189 24.2592 42715 1
41.7646 44.1588 21.7669 1249 1
54.2442 27.2234 24.3942 20144 2
56.0147 27.4385 21.6101 19382 2
53.9696 29.0526 22.5367 1105 1
55.9383 30.7004 21.8165 248 2
54.025 30.4585 24.6424 1164 2
56.6119 29.1894 25.155 1973 2
58.8121 26.8327 21.5856 19227 1
58.1829 28.6805 23.1731 19231 2
61.2774 29.4439 22.2443 2792 2
58.9997 30.9658 22.3714 1109 1
59.7141 30.5933 25.3674 200 2
61.4481 28.4671 24.7747 19243 1
65.8281 26.9404 22.8948 18337 1
64.4231 29.4012 22.3885 19242 2
63.151 30.8351 24.8705 20214 2
64.2397 27.9674 25.3222 20151 2
68.5388 27.4389 22.1155 30998 2
69.8532 27.6426 24.906 19186 2
66.9065 29.0359 24.44 12515 2
69.3567 30.151 23.3986 43818 1
66.8925 30.727 22.0835 30833 2
71.6559 29.7321 24.8835 19294 1
73.9731 29.369 23.2885 43804 1
71.3899 28.6753 22.3712 18339 2
72.9334 27.623 24.3471 18336 1
17.7391 35.2694 25.264 2808 1
19.2857 32.849 23.2052 1017 2
18.0881 35.5093 22.5568 1121 1
20.0953 35.7705 24.5272 63543 1
21.8337 34.7965 22.8037 1060 2
22.4873 32.6971 25.0658 1980 1
24.6145 33.1811 23.3308 63681 2
28.8003 31.8673 23.2096 40965 1
26.9198 32.7281 25.2967 20152 2
27.138 34.0283 22.7602 1070 1
29.2104 33.9608 24.1607 1989 1
29.3799 33.9658 21.3816 1031 2
26.8518 31.9299 21.3583 40917 2
74.0538 66.6895 74.6616 27627 2
31.4711 35.3396 22.875 1029 2
31.4547 32.267 23.3648 1940 2
33.9312 34.0382 24.242 24974 2
33.3211 33.4138 21.6179 984 1
31.1318 34.3376 25.6329 2916 1
35.5015 31.8207 22.8734 41893 2
38.8811 32.4601 23.3871 1199 2
36.5391 34.875 22.4753 41937 2
38.9357 35.1804 24.8992 20283 2
36.586 33.5298 24.9442 1080 1
39.2026 35.2416 22.0648 19202 1
41.2044 31.6189 22.8483 42701 1
41.2852 34.2908 22.9864 2002 1
43.3187 32.8014 22.1387 41848 2
41.6844 32.8571 25.2485 2004 2
43.7664 35.3822 23.9703 2990 2
46.5096 34.9282 22.9307 2067 2
45.3566 32.5193 24.4686 43700 2
46.3262 32.4573 21.163 197 2
48.666 35.161 24.8049 236 1
48.6855 32.5076 23.3699 237 2
49.8079 35.176 22.64 41035 1
51.5188 34.0236 24.5263 2022 2
51.1489 33.4524 21.8056 291 1
57.0951 32.1086 24.136 2077 2
54.628 33.4544 25.0142 249 1
56.1062 34.7012 23.4691 19334 1
53.8967 32.9054 22.6805 20251 2
53.6772 35.4059 24.1505 1208 1
59.2096 33.6371 25.1142 19233 1
61.6227 35.0109 23.9839 43165 1
58.3073 33.6195 22.1368 241 2
61.3016 32.5879 23.1187 1112 2
74.7871 34.9474 38.7056 22064 1
64.3807 32.0824 22.6088 18380 1
64.1471 34.8572 22.4314 19232 2
63.6698 33.7265 24.9822 19341 1
65.7747 35.1844 24.9145 19339 1
66.1844 32.2628 24.7044 19289 2
66.6145 33.4617 22.2995 19288 1
69.0013 32.7847 22.7931 20162 1
70.2587 35.7171 22.9639 19349 2
68.1968 34.3439 24.4328 19293 1
29.5884 69.8944 21.51 63014 2
74.0825 31.8019 21.826 19297 1
71.5814 31.9154 23.407 19246 2
73.5765 34.4724 22.4936 43988 2
74.5021 32.0623 24.5507 19301 2
71.6298 34.1132 25.3912 19295 2
74.5213 35.0589 25.5773 19350 2
20.1453 36.9893 22.3177 63542 1
18.0803 37.7825 24.2291 63539 2
22.0319 37.6918 24.1791 1979 2
18.3222 38.729 21.7962 63669 1
19.9471 39.2694 25.5544 63318 1
25.2026 35.6353 22.3333 43702 1
24.0063 36.1976 24.5524 1069 1
23.1171 37.1753 21.4607 1988 2
25.4372 38.3505 23.165 2036 2
23.0115 39.5632 22.2094 2045 1
26.6645 35.7778 24.6986 1075 2
29.5738 36.5313 24.7728 1074 2
27.9791 36.5558 22.0143 41015 2
30.3789 38.4083 22.4274 1028 2
28.1643 39.126 24.4773 1122 2
34.1177 37.0836 23.2241 2829 2
31.9742 37.9362 24.3613 1079 1
35.5486 39.7388 22.956 1998 2
37.9231 37.6754 23.1267 41068 2
36.0456 36.2792 25.2946 1995 2
40.3343 39.6997 23.4618 41984 2
40.8668 36.851 23.2153 40988 1
42.6924 38.5925 22.0059 1204 2
42.5892 37.9741 24.6739 2066 1
45.0737 38.024 23.9725 41031 1
47.754 37.648 23.4654 330 2
45.8899 39.0967 21.4975 286 2
44.7144 36.6418 21.7962 1159 1
52.2136 36.0855 21.871 1155 2
50.8914 37.0022 24.5031 1162 2
49.978 39.5632 23.21 290 1
48.8839 39.1677 25.612 1213 1
51.3152 39.9274 25.6251 2074 2
52.7792 38.9511 22.9077 18473 2
56.3584 36.8325 24.9076 19276 1
55.1899 37.196 22.4115 20297 2
55.4524 39.1265 24.4877 388 1
58.767 35.9737 24.0491 2121 2
57.849 39.0138 23.259 18430 2
60.869 37.1962 23.2038 1119 1
60.0373 38.3003 25.1843 18376 1
60.5665 38.8962 21.0983 18381 2
62.2435 39.288 24.2733 19286 2
63.2441 36.5391 24.8149 20213 1
62.9586 37.1663 22.2409 19236 1
65.5643 37.8869 24.0416 19281 2
64.1376 39.395 22.136 44031 1
66.2716 39.7558 25.6749 20260 1
70.3962 38.3968 21.2374 18383 1
66.9494 35.7909 22.608 20215 1
68.1521 36.8152 25.2704 19291 2
68.1896 39.3015 24.4138 163 1
68.3727 37.8674 22.5036 19290 1
70.6842 38.3885 24.026 18437 2
72.6246 36.4347 24.3314 25899 1
73.6609 38.9614 24.3972 19352 2
72.6538 37.4859 22.182 18386 1
70.8861 33.7622 21.4417 18438 1
20.5177 40.1244 23.0017 63537 2
18.7734 42.7995 23.4979 63648 1
21.1441 43.7478 24.2383 63528 2
20.4373 42.5506 21.915 63678 1
58.4066 74.8864 65.2143 28926 1
21.7509 40.9085 25.3666 63529 1
23.8993 40.3036 24.5775 2039 1
22.8246 42.0222 23.1591 21093 1
25.2594 41.4271 21.9906 41066 2
24.079 44.3646 22.2367 63650 2
24.0582 43.1548 25.3504 63091 2
26.3007 41.3299 24.9155 2037 2
26.4413 43.4879 23.6067 2969 1
30.641 40.5353 24.7649 25055 2
28.623 41.8205 22.7757 43701 2
31.1324 43.884 23.7315 2090 2
32.8051 40.1638 23.3374 41941 1
31.287 41.4354 21.4695 41883 2
34.0346 42.5735 23.0588 2051 2
34.102 44.0463 25.3488 41940 1
32.5303 44.0575 21.3345 24950 1
32.8108 42.1544 25.4642 1994 1
37.8577 40.9005 23.5786 1202 1
35.9742 41.9258 25.2937 2053 2
38.5473 43.4359 24.7566 41078 1
36.5471 44.3111 23.2721 41939 2
36.2073 42.248 21.57 2056 1
62.1104 18.3002 50.17 7564 1
39.4192 42.7886 22.3302 3133 2
43.3534 40.2286 24.1307 25047 1
42.1278 41.5101 22.1459 1200 1
41.3927 42.5827 24.5442 1198 2
44.587 41.2596 22.4233 25049 1
46.5529 40.6431 24.1526 2119 2
46.3766 43.192 22.3052 1254 2
47.3912 43.6512 25.1596 1253 2
44.8009 41.9921 25.9793 25018 2
48.5963 40.8459 21.5229 41038 2
49.0804 41.6237 24.2625 2113 1
49.2639 44.1648 22.6969 340 2
51.7022 42.0215 23.0021 289 2
53.7113 44.1622 22.2472 1307 1
53.6371 40.854 24.7221 20299 1
55.1272 41.0409 22.3851 18427 2
54.5126 43.1256 24.0373 39218 1
56.4279 44.0468 21.422 1350 2
57.2453 42.4047 23.9434 19337 2
60.1451 41.3234 23.3476 20206 2
61.4888 43.4908 24.5226 20298 2
59.1194 43.7919 22.6087 1255 1
61.2834 43.2695 21.7084 18479 1
62.4183 41.2316 22.0924 18379 1
64.502 41.5451 24.1094 19338 2
63.4185 43.6378 22.704 18435 1
66.0975 43.4476 22.3185 19384 1
66.7336 40.2518 22.2526 18433 2
70.1794 40.9162 25.3897 19340 1
69.5589 40.7844 22.3569 18439 2
67.6452 42.1365 24.3198 20305 2
70.6719 42.8502 24.4843 19389 1
69.2424 43.4494 22.4407 19396 1
72.3632 39.9109 21.9249 18443 1
72.3789 41.1552 24.0412 20353 1
74.6962 41.5147 23.021 20361 2
72.9369 43.843 23.8662 2141 1
71.8178 42.8065 21.0928 19401 2
18.876 45.5448 23.1631 63282 2
18.1204 47.2549 25.1453 63280 1
20.6699 47.3617 25.2676 48662 1
74.8966 34.8558 33.9882 21112 1
74.6455 44.0999 48.6399 24877 2
22.253 46.7212 23.2632 53468 2
24.4005 46.0166 24.5394 2088 1
24.5543 48.3569 23.9462 63527 1
26.5673 46.4022 23.1412 41064 2
28.642 44.6539 23.3587 2049 1
23.1189 18.3333 53.2544 8256 2
30.1637 46.7135 22.3944 41946 2
28.6961 46.4386 25.0442 1131 1
31.0649 46.2702 25.2083 2046 1
33.3378 46.0309 23.0442 2157 2
32.1256 48.295 24.2109 2922 1
32.4024 48.3882 21.9069 41115 1
35.5689 45.8921 24.9356 3952 1
38.835 46.1401 21.6833 41124 2
36.0953 46.7646 22.5428 41990 1
38.2067 46.6135 24.8061 2159 2
43.8468 43.9623 23.8453 1251 2
30.1269 18.3718 38.8993 5470 2
40.3594 45.1174 23.8729 2156 1
41.9154 46.649 22.2176 1293 2
43.7685 46.731 24.1572 2162 1
41.22 47.3288 24.8286 1292 1
44.7885 48.1539 21.916 2169 2
46.1353 45.5243 23.6451 381 1
46.1535 47.6705 24.4887 21219 1
48.3529 48.5456 25.0779 2214 1
48.3148 46.4165 23.6963 385 1
62.3237 75.0367 43.589 25713 1
51.6093 44.6628 21.4221 2120 1
52.0505 45.0065 24.4386 25040 2
52.6632 46.6079 22.3073 1345 1
50.8399 48.041 24.1592 2213 2
50.0458 47.0968 21.3197 1305 2
55.4041 45.8809 23.7472 1306 2
55.9259 48.349 21.7471 19426 2
53.7104 48.6909 23.6523 19428 2
57.1582 48.2899 24.6764 21280 2
58.6785 45.3263 24.6382 1303 2
61.4199 45.9538 22.6226 20338 2
60.3286 48.3417 24.1745 2172 2
58.5701 46.8148 21.8943 20346 2
65.9582 44.6341 24.7808 21284 2
63.3748 45.5595 24.4064 20304 1
64.6348 45.9514 22.0052 19386 2
66.1086 47.0628 24.0221 25875 1
63.1127 48.3731 21.5101 1274 1
63.4902 48.4831 24.1638 18534 2
67.8015 45.8155 22.1483 21192 2
68.9727 47.9725 24.3317 19439 2
70.349 47.9315 21.4836 18476 2
68.8886 44.9692 25.2001 20308 2
74.4566 44.4292 21.7846 18488 2
71.0069 45.4392 23.0345 19436 2
74.3273 46.5159 24.1804 20313 2
73.1688 46.8971 22.0218 18542 1
19.6117 48.6001 23.0776 63274 2
18.434 51.4948 23.2333 54461 1
21.1103 51.487 22.9546 63632 2
19.5227 50.6311 25.5667 63275 2
23.1565 49.665 22.1045 48669 2
25.2378 51.8198 22.2321 63235 1
24.8169 51.0878 24.6959 63483 2
22.4303 49.2353 25.0946 48858 2
26.0368 49.3238 21.8782 2085 2
22.321 51.8491 25.4942 63486 1
29.8187 49.5698 23.2223 24951 2
27.7496 52.0347 23.4312 2089 2
27.1425 48.9361 24.6748 63281 2
31.0564 51.5859 21.9917 2040 1
34.7143 49.0741 23.7337 2095 2
31.8231 50.9055 24.4934 40237 1
34.2941 51.2932 25.247 41120 1
33.5431 52.1042 22.7254 2048 2
37.3253 48.7554 22.4 2155 1
36.7928 51.6161 23.634 378 2
37.253 49.04 24.663 63642 1
38.8375 51.1453 21.5264 18505 2
39.8281 49.0287 23.4106 1294 2
38.8109 50.7629 25.5941 1336 1
40.1088 52.1365 24.0743 1339 2
41.5673 52.5395 21.5587 431 2
42.836 49.6002 24.0933 2200 2
43.1245 52.6853 24.5776 1388 2
28.2534 47.9798 21.3096 41062 1
47.5899 49.2709 22.118 41079 2
44.6371 51.3384 21.8189 383 2
45.706 50.1349 24.8193 1295 2
46.8303 51.9824 23.3202 2240 1
48.9127 50.8261 23.9556 394 1
49.5349 52.6713 22.098 3092 2
50.1683 49.8133 22.3 1351 1
52.3361 51.3476 22.5934 25001 2
55.8177 51.2472 23.1261 1268 2
53.6442 53.096 24.8497 25885 2
57.9286 51.0773 25.0575 1310 1
58.2998 49.7306 22.7019 19470 1
59.7795 51.477 23.1094 3150 1
60.6803 51.0268 25.5349 20342 2
26.8838 27.8508 21.2485 986 1
65.9904 48.9415 22.244 20344 2
62.5433 50.7822 22.7638 19483 2
65.2675 51.0819 23.7008 20397 1
66.1658 49.2716 25.6689 20351 2
65.0564 51.6121 21.4364 18526 1
68.765 50.1198 21.9651 25893 1
67.7299 50.48 23.9117 25042 1
67.3075 52.4944 22.3205 19482 2
70.3544 51.3438 23.9867 19488 2
72.0354 48.7051 24.2307 2268 2
71.1903 50.4359 21.6476 20352 1
74.8576 49.2488 23.902 25871 1
73.596 51.2598 22.9228 19532 2
73.3077 50.7489 25.6554 19485 1
74.1895 52.8609 25.5876 20447 1
49.0303 18.4606 46.3403 10405 2
19.007 54.1667 23.2214 63500 2
20.6812 56.9959 24.109 48680 2
57.4264 24.8073 21.2387 18326 1
22.2165 54.0855 23.8287 63481 2
23.2219 55.9034 21.6839 63634 2
25.1054 54.1317 23.8447 63188 2
23.5654 56.6347 24.2413 63485 1
30.505 53.35 23.9353 40239 2
26.5562 57.011 23.0087 63479 2
27.996 54.8077 22.7056 3022 1
28.5033 55.2186 25.4413 2195 2
30.1247 56.5974 22.6453 25023 2
33.0866 54.3918 23.6963 41977 1
33.5066 56.7451 22.7627 428 2
35.355 54.0681 25.4487 41170 2
35.5543 54.4493 22.5632 41126 2
37.5671 54.253 24.1469 477 1
36.1049 56.9658 24.5995 376 2
37.414 56.9072 21.8397 1338 2
39.1616 54.2323 22.3544 25067 1
39.2312 56.2798 24.4947 3191 2
43.5904 54.8609 21.79 435 2
41.247 54.5249 23.4508 19545 1
41.9111 56.9131 23.4394 481 1
43.5692 55.9085 25.5046 2289 2
45.2536 53.866 23.7457 1386 1
47.9867 54.2249 24.2612 1297 2
46.609 53.9307 21.7756 438 1
45.3818 56.6226 22.8815 1390 2
48.2486 56.2054 21.8284 1348 2
47.6394 57.2858 24.2906 1393 1
46.1632 55.6484 25.4912 1347 1
50.1627 56.6509 24.7408 20463 2
51.1876 54.0259 23.8112 19565 1
73.8065 18.0155 53.2056 5180 2
19.3796 18.268 44.9768 6437 2
52.6752 55.9404 23.4608 1399 1
55.7471 54.0278 23.2254 19469 1
54.854 56.1585 21.8389 20435 2
54.8322 55.7372 24.9542 19657 1
53.415 53.8156 21.9847 1352 1
57.7258 53.0092 22.4628 1267 1
58.983 53.1999 24.7148 19379 1
57.3864 55.4614 21.6296 19517 1
60.0857 54.2876 22.0581 20390 2
57.8 55.7182 24.2898 25887 2
59.2683 56.8473 21.9457 18630 1
61.0734 56.4126 23.6907 25865 1
62.0164 53.4309 24.299 19476 2
64.8291 53.6149 24.094 19486 2
63.7893 56.4165 23.4489 19570 2
63.142 53.5469 21.3903 18633 2
65.7217 55.1639 21.4158 19581 2
67.2836 54.9093 23.6352 19585 1
69.6787 54.1352 24.065 19524 2
69.8225 57.0018 22.2657 19586 2
75.035 56.4461 49.3434 26086 2
71.7087 53.6321 21.5045 19489 2
72.4592 53.5258 24.0553 20402 1
74.8447 56.3882 21.3041 19533 1
72.614 55.8628 23.1174 20444 2
71.2928 72.2478 74.5 26052 1
74.3372 55.3298 25.5976 20446 1
17.8287 57.8927 23.6709 63187 2
18.6331 59.9779 21.8104 53700 2
21.3486 59.5958 22.6884 63438 1
19.5399 60.0995 24.4257 63040 1
20.8569 61.9855 23.2791 63425 2
24.0077 58.8206 22.7631 63433 2
24.1588 61.5339 24.3584 54632 2
25.4817 59.0033 24.9134 63042 1
22.1437 59.5143 25.3787 63183 2
22.8681 60.9794 21.1817 63598 1
28.7344 58.2974 24.8151 63272 2
29.5501 59.4577 22.1266 53557 1
27.1241 60.3654 23.2514 63227 2
30.5119 61.1352 24.2592 24954 2
74.6645 27.1124 39.1223 25764 1
33.7047 58.1683 25.0685 24941 1
32.0156 59.2517 22.8321 1382 2
35.3386 59.4657 22.7822 24999 2
31.441 58.7129 25.7088 3012 1
38.0448 59.7518 24.1135 1385 2
35.9628 61.5012 24.7651 20458 1
37.6944 59.8612 21.2571 426 1
40.108 58.4993 21.792 429 2
41.1606 58.3496 25.2259 2333 1
43.5035 60.7489 22.9116 19607 1
40.972 60.8203 23.6606 24937 2
43.4992 58.6492 24.2495 1387 1
43.1748 58.2124 21.4488 479 2
44.0116 61.9567 25.4018 1441 2
17.6997 48.2057 40.4111 62757 1
46.0148 59.8389 23.4469 1445 2
48.2853 61.0288 24.4833 1444 1
50.764 57.6799 22.3425 491 1
48.6599 59.3172 22.4034 1447 2
50.8553 59.6684 24.3538 19569 2
52.988 61.6036 23.1261 2342 1
68.6365 75.0482 40.4824 24665 1
53.157 58.7739 22.8083 1398 2
55.4693 61.4754 23.4897 25862 1
56.0457 58.5496 23.8147 448 2
54.0072 60.4642 25.0584 24996 1
59.1264 58.4952 24.1365 444 2
57.8848 61.062 22.3792 19618 2
60.9287 60.5434 23.7833 20476 1
57.1597 58.2508 21.1259 1401 2
62.3956 58.8082 23.2563 19572 1
64.7861 59.5753 23.898 19520 1
63.291 60.9285 21.9334 19580 2
64.362 62.1122 24.134 19625 1
54.3747 18.3659 41.1719 4579 1
68.5269 56.8914 25.2693 19626 2
66.71 57.7234 22.9724 1420 2
69.3521 59.8816 22.9148 20487 2
67.5119 59.4174 24.8489 20483 1
74.68 60.8133 24.7729 20497 2
70.9288 57.9032 24.4168 20488 1
72.607 59.0491 22.3611 20485 2
71.8639 60.6528 24.3815 21396 1
71.203 61.1703 21.5528 19632 1
73.5997 58.2369 25.3635 20489 2
74.6452 71.1992 71.5488 28812 2
18.3513 66.0268 24.6789 50692 1
21.1941 64.778 21.9245 54635 2
21.0709 66.2236 24.921 63177 2
18.9133 64.1607 23.2602 55588 1
23.9913 63.379 21.7088 63600 2
26.5061 62.8812 22.6346 63474 1
23.3072 65.9201 23.0179 63141 1
25.0767 64.4753 24.836 63028 2
22.587 63.7845 24.1314 48872 1
25.7858 65.7341 21.8674 63411 2
29.4586 62.3888 22.2444 5799 2
28.545 65.2828 22.851 63144 2
27.9905 63.2617 25.049 63176 2
33.6727 62.133 23.1725 19499 2
31.6415 64.4655 23.6758 5309 2
33.3895 63.7005 25.573 2284 1
36.9482 62.404 22.5329 2288 2
39.6308 63.0624 22.9566 2286 1
38.2478 65.5758 23.7099 2328 2
35.7681 64.2991 24.7272 24997 2
38.3684 62.6598 25.3921 1384 2
40.4608 65.2585 21.9008 526 1
42.3744 63.0864 22.119 1440 2
41.4376 63.8405 24.8084 1439 2
41.6258 66.7088 23.5883 572 1
45.203 62.4639 22.7969 1391 1
47.6665 62.2127 22.4668 19616 1
46.4408 64.5281 22.3261 525 1
44.3635 64.988 23.7731 1442 2
47.1412 63.5815 25.0094 1443 2
50.372 62.376 22.7391 19660 2
48.7685 65.8953 22.6466 1446 2
49.9847 64.1636 24.9024 25036 1
52.0565 64.9976 22.9952 2381 2
52.2225 62.4326 25.5025 19617 2
55.7852 74.8044 59.2463 27106 2
54.8906 63.8008 23.0135 19665 1
56.4498 63.2342 24.9343 20518 1
54.1486 64.6102 25.1121 1490 1
60.5173 62.8504 21.9131 18729 2
57.563 64.4626 22.6102 20521 2
60.3475 65.3657 23.4849 19670 2
58.0977 65.3797 25.123 20522 1
59.1268 62.8233 24.9138 20525 2
62.9734 63.7146 22.3746 1455 1
61.9778 62.7412 24.4362 25860 1
65.0987 64.2945 23.7565 2354 1
62.7338 65.1155 24.6198 19624 1
65.5351 65.6296 21.6577 19629 1
66.7943 61.1754 22.4918 546 2
67.4043 63.021 24.4937 20533 1
67.8906 65.7572 23.4362 18736 2
69.6679 63.107 22.745 20527 2
70.8101 65.5025 22.2058 1461 1
74.8283 64.9058 23.8644 22590 1
73.0712 62.7102 22.842 19679 2
72.111 65.5 24.4532 21693 2
73.3557 65.646 21.6609 43679 2
71.4493 62.986 25.1122 19639 1
19.0145 66.5618 22.4309 50596 1
19.7579 68.4271 24.1944 54678 1
21.2267 67.7659 22.3358 63142 1
18.0429 69.9227 23.8363 63016 1
19.9469 70.0549 21.6242 54856 2
44.5611 45.5895 21.6013 1257 1
23.7124 67.967 21.0632 48693 2
22.9739 68.6069 24.1415 54677 2
25.2932 67.2648 23.9381 63140 1
25.9048 69.4873 23.1827 55682 1
28.2136 68.072 23.7308 63139 2
29.5227 67.4761 21.1458 1383 1
30.1281 69.901 24.3759 48819 1
24.5133 75.0533 50.6839 24613 1
45.8518 17.9024 54.341 8224 2
31.4214 67.5362 23.2957 4461 2
34.6186 67.6884 24.4051 4413 2
34.3074 70.4536 23.8293 21775 1
38.4022 70.0474 24.4711 4204 2
39.746 68.0817 22.1981 19546 2
42.1877 69.5913 23.9272 18753 2
43.87 67.5522 23.071 579 1
74.2712 18.5249 27.1536 12895 2
46.2833 67.684 24.2802 578 2
45.1854 69.8973 22.4057 1487 2
44.7957 70.63 25.5838 1483 2
47.6576 69.0453 22.2009 530 1
50.5892 66.7315 24.522 2338 1
48.9098 68.4153 24.2384 1528 1
50.7465 68.9376 22.6448 1488 2
52.9753 67.2217 24.2149 2427 1
55.5098 66.5723 23.8691 2430 2
53.9316 69.5606 24.7496 1533 2
53.9163 68.4346 21.6774 19710 2
56.1337 69.0637 23.149 2425 1
60.5082 68.2979 22.3573 19718 2
58.4452 67.4885 23.562 20569 1
58.6099 69.901 23.6997 25855 1
74.6795 38.9152 21.5282 18489 1
62.8876 66.4235 21.6862 18779 2
63.4755 69.4348 22.6972 25856 1
64.9166 67.0889 24.0809 20529 2
62.2978 67.4872 24.2001 20571 1
62.9225 69.6649 25.0912 21735 1
66.211 68.5091 21.6929 21739 2
68.9684 67.3181 21.6941 25881 1
70.3214 67.7339 24.0428 25816 1
69.5201 69.593 22.7814 18741 1
67.605 68.2718 24.9268 22589 2
30.001 44.0297 21.0991 42710 1
71.4278 67.7939 22.0503 2396 1
73.6372 68.3167 23.3278 2592 2
71.9834 70.4378 22.1371 21785 1
73.9509 69.5025 25.7271 21748 1
71.9984 67.7772 25.6806 25853 1
71.5488 70.5142 24.8253 22642 2
70.8851 74.838 29.2055 11266 2
20.5598 71.2111 24.6422 54810 2
19.3669 74.1483 25.0555 54859 2
18.6717 72.2672 22.8457 63105 1
21.409 73.1078 21.9454 63116 2
23.0182 70.9248 22.3867 63128 1
25.1982 72.0298 22.5173 3538 1
24.5956 71.0283 24.598 63124 1
22.9606 72.8793 24.2095 63010 1
25.3689 73.4428 24.4228 48908 1
24.0533 74.8514 22.1325 63005 2
27.4616 71.4114 21.9872 50703 1
29.1388 74.6952 24.6742 4507 1
27.4754 71.168 24.7734 63125 2
27.4934 73.4027 23.306 24854 1
30.0723 72.2601 23.0654 3587 2
18.5246 18.1398 38.3106 4552 2
31.9482 70.3123 22.959 4458 1
33.5045 72.7303 22.3211 24933 2
32.665 71.9986 24.9275 4512 1
21.1907 32.6996 21.2153 74584 1
35.618 73.0231 24.7479 3602 2
38.9359 73.2232 24.9979 22511 2
41.4211 72.2002 24.9402 2374 2
43.5464 71.8179 22.8733 19699 1
48.5737 71.4362 21.9203 1535 1
47.1777 70.5303 24.0968 3300 1
46.2108 73.1014 22.4181 1531 2
44.1547 73.6047 24.9754 1532 2
47.2983 72.9806 25.4053 2424 2
51.3716 71.9173 21.3777 632 2
50.175 71.2766 24.4811 2426 2
49.0689 73.6115 23.0662 1534 1
51.4028 73.8565 23.6701 32221 1
52.9855 71.9394 24.2051 2431 1
53.034 18.0215 74.5421 27584 1
53.7614 71.3483 21.7322 25821 2
54.5836 73.9632 23.037 22631 2
56.8006 74.3518 24.5687 21729 1
56.3349 71.3936 24.3797 21476 2
56.5658 72.6226 21.8049 2432 1
58.972 73.0121 23.5159 20618 2
61.3422 71.0594 23.5529 20619 2
58.6988 70.9367 21.2451 19667 2
61.2939 73.4901 21.3705 21788 2
59.0899 71.0515 25.5379 20616 1
65.5349 70.4443 23.9112 20824 2
63.576 73.0013 23.4513 22588 2
69.0082 74.8934 23.9685 21787 2
67.6327 70.8418 21.8778 21740 1
68.4362 71.3851 24.6031 21737 2
66.8054 73.2117 22.5349 21781 2
70.01 72.353 22.2373 22688 2
66.6837 73.4205 25.7871 22638 2
34.2556 18.2983 53.0824 18013 2
71.6118 73.4511 24.4388 25817 1
73.6388 72.4888 22.8237 20834 2
73.9301 72.1761 25.5908 21791 2
35.9775 74.7518 54.0367 8954 1
19.0227 20.7452 25.5519 20053 1
63.1654 74.9827 60.2772 28927 1
20.0155 18.7444 27.0267 1881 2
21.2474 19.9574 29.6695 2716 2
21.2366 21.2046 26.9668 25064 1
19.3611 22.1956 28.8428 20051 2
26.0092 18.3736 27.819 784 2
23.2151 19.4821 26.9857 20009 2
24.6828 22.0824 27.3097 24990 2
75.1301 44.3406 61.1489 29052 1
27.2988 21.1149 29.5328 2772 1
27.5945 20.972 26.8605 2717 2
28.9744 18.8852 28.6681 1847 2
29.7288 21.4209 28.6673 2776 1
33.809 21.4102 25.9092 2726 1
31.2973 20.3211 26.7743 1891 2
33.8551 20.9811 28.0875 987 1
31.7464 20.376 30.0027 3653 2
17.8994 68.2188 69.3089 12421 2
36.2475 18.469 28.2386 3659 1
35.4369 19.6239 26.1552 20120 1
38.3919 19.2039 26.7262 21910 2
39.0983 21.9342 26.8698 3657 1
36.5087 21.6059 27.9151 1900 2
38.3385 19.4149 29.7733 3663 2
39.5004 22.3597 29.549 3662 2
41.4733 22.0438 25.6273 3665 1
41.2094 20.208 27.6594 22582 2
43.9272 21.4988 25.854 21871 1
43.0599 22.223 28.6283 2784 2
43.8106 18.6278 27.4048 22714 2
45.4169 20.8632 27.8944 12875 1
48.0859 20.3775 27.0016 23264 2
46.2719 18.3982 27.8696 22534 1
50.9072 18.7326 27.303 3670 2
50.4248 21.5438 26.8246 21895 1
51.9156 22.1371 29.2574 22570 2
49.7675 20.049 29.4585 22528 1
74.6887 73.3301 28.4915 22644 2
52.4497 19.5749 29.0775 21898 1
53.1744 20.9538 26.6206 2785 2
55.7565 21.0027 26.1064 23127 1
55.1026 20.1431 28.8287 22564 2
57.2214 18.6838 26.218 11602 2
57.5941 21.3269 27.5816 23632 1
57.9341 19.0908 29.4633 21893 2
59.7053 19.6156 27.0276 20993 1
60.1336 21.4857 28.8554 20141 2
57.6814 22.529 29.564 12459 1
61.811 20.3548 25.5691 38322 2
63.1791 18.4825 26.8906 12512 1
64.4285 20.4132 26.1487 12897 1
63.0616 20.7403 28.5719 25850 2
65.1948 19.0169 29.3842 31025 1
66.2058 21.1081 27.6013 11550 2
68.6725 19.2645 26.9063 30802 2
70.4632 20.3218 28.7511 1659 1
67.9115 19.4836 29.8327 30814 2
67.4703 22.0279 29.9027 12415 1
17.7153 18.5194 24.3458 1932 2
71.8235 22.4324 28.8294 11516 1
71.7606 19.945 26.3104 22613 2
74.3155 21.6169 27.2095 30808 2
72.859 19.7942 29.0931 12506 1
19.3376 23.2272 26.1979 1887 1
20.1632 24.5635 27.9385 1930 1
22.1206 25.6209 28.7109 2818 1
22.2441 24.1798 26.3556 1886 2
22.4036 23.0147 29.1047 1841 2
24.5889 25.9085 27.931 976 2
25.668 23.6811 29.9528 2770 2
29.7454 22.875 26.7627 936 1
27.0086 23.9785 27.1826 1889 2
29.4285 24.9144 28.0309 2771 1
27.9155 25.4183 29.8241 2764 1
28.2848 23.1546 29.5828 24989 1
27.583 26.9107 27.1732 2769 2
30.2804 26.3165 30.3248 1892 2
32.5873 23.4031 27.4599 2775 2
31.4971 26.4131 27.2664 1946 2
33.5343 25.7631 29.5339 2825 2
34.5859 26.4434 26.3543 25028 2
35.3002 24.1252 28.1247 2778 1
37.7301 24.6118 26.861 25025 2
37.0336 23.6659 29.6933 5526 1
36.4488 26.512 28.7756 2828 2
43.2301 23.6282 26.3532 22532 1
40.6665 24.1532 27.2004 23152 2
42.4171 26.1266 27.6381 3759 2
41.5344 24.3449 29.8927 3717 1
46.2448 23.17 26.8538 4627 2
44.6382 24.7993 28.3511 21900 1
47.3388 26.2781 27.2756 2786 2
47.8693 25.0075 29.6671 4629 1
45.9066 26.3962 29.6509 3720 1
48.7142 22.6553 28.7899 2736 2
49.6095 24.0247 25.9852 750 2
52.5069 23.9699 26.6774 2024 2
50.2517 25.5054 28.328 1107 2
52.0405 26.5878 26.0444 2026 1
54.0492 26.0447 27.101 42770 1
52.8381 24.7148 28.9983 21056 1
56.5585 26.3244 27.0789 40027 2
55.3263 23.2739 27.6835 30857 2
54.8673 25.7321 29.871 1056 2
54.4009 22.6768 29.8987 2851 1
57.3148 25.0902 29.4266 2028 1
61.1908 22.8754 26.8125 20104 1
58.9697 24.1851 27.5314 20098 2
61.2827 26.0491 28.6213 20201 1
61.93 25.7584 25.9715 713 2
62.0602 23.9008 28.8333 20096 1
63.9617 23.0188 26.7594 20100 2
64.0514 26.0647 28.1071 19684 2
64.7377 23.1382 29.6274 25880 2
66.0504 24.1089 27.6066 12414 1
69.0285 22.4959 27.6663 12867 2
66.9798 26.6526 26.7873 25879 2
69.6618 25.3819 26.9119 19196 2
67.7347 24.7369 29.6008 12419 2
70.3939 24.32 29.2659 20160 1
74.3493 22.5968 29.6531 12890 1
73.9477 23.7512 25.7713 20157 1
72.9029 24.6533 28.0103 1651 2
18.7057 28.568 26.1316 63548 1
19.5772 27.2307 28.3683 2763 2
18.6318 30.9457 27.2355 1936 2
20.6827 29.8504 28.7413 1982 1
22.1324 27.5369 26.5781 1885 2
23.0104 30.0732 27.721 1929 1
25.5648 29.0664 28.455 1941 2
22.8405 28.1614 29.678 2859 2
23.9551 31.0932 30.4304 2912 2
29.7773 30.8174 25.6938 1947 2
27.2154 29.44 26.218 25059 1
29.5982 28.9357 28.3801 2864 2
29.6683 31.2561 30.0189 20205 1
31.782 29.4087 27.1403 2872 1
34.5931 29.5548 26.5366 24982 1
33.5425 28.1425 28.0763 24984 1
32.1298 31.1024 29.1583 1993 2
37.281 27.044 26.1488 1951 1
39.5674 27.4582 28.5994 4664 2
35.5898 29.5187 29.4803 3752 2
37.4509 29.512 27.0332 2831 2
38.3762 30.0108 29.4801 2862 1
39.9054 26.7802 25.7316 1958 2
40.0833 29.9984 27.6376 2873 1
42.4751 29.0365 27.0002 2069 2
41.1131 29.6462 30.0745 2879 2
43.5901 28.0828 29.7557 2941 1
43.7229 30.4695 29.1233 2789 1