ITEM: TIMESTEP    
160000     
ITEM: NUMBER OF ATOMS  
77888     
ITEM: BOX BOUNDS pp pp pp
17.607 132.393    
18.0782 131.922    
26.8677 123.132    
ITEM: ATOMS x y z id type
19.9287 20.7229 27.5681 72779 2
18.8583 19.4673 30.0194 1881 2
21.6303 22.6309 28.7674 977 2
19.6184 21.9505 30.589 1887 1
21.6485 19.5833 29.5255 1839 2
25.3771 19.9264 30.7075 22628 1
24.1521 19.9343 28.5928 926 1
22.8835 21.2418 30.8458 1848 1
43.4155 21.682 26.9429 43668 1
72.5791 18.0713 50.1716 18364 1
27.9748 18.4298 28.0372 72824 1
30.2654 19.914 29.7098 20062 2
27.1072 20.8491 28.8288 1846 2
29.7026 22.3619 28.2937 1895 1
29.3829 22.7553 30.7507 1944 2
64.3769 41.3976 27.2082 19387 2
31.5297 74.8005 31.6385 3550 1
33.1424 20.3494 29.2393 43709 1
31.9083 21.4677 31.0159 25026 1
34.3424 21.1512 31.0318 2726 1
34.1396 21.6874 27.3169 19151 1
34.1252 18.7242 27.0426 24988 2
31.8475 20.8283 27.02 25063 2
35.9991 20.2451 28.7998 1851 2
39.0438 20.9388 28.3729 22537 2
37.3746 21.6079 30.9502 1899 2
37.8582 18.3887 29.9201 22536 2
41.083 19.3752 30.2015 1854 2
43.8068 18.5103 30.8618 23128 2
41.9458 19.9913 27.738 43666 1
39.9144 21.4552 31.1788 3657 1
43.5627 20.7793 29.3589 21871 1
35.3839 18.1475 49.6441 20436 1
39.897 18.1961 28.1453 1904 1
42.6398 21.2662 31.4413 3665 1
44.7715 19.2612 27.9709 1099 2
47.6154 20.7537 28.2501 40834 2
46.6013 18.9221 30.3275 22576 2
47.5812 21.9445 30.7093 1908 1
50.4086 18.7444 27.7717 38521 2
50.1622 21.4533 27.669 40893 1
52.3871 20.1406 30.7491 22574 1
49.5113 20.1155 30.2157 22529 2
52.6413 20.8468 28.1919 38365 2
51.1296 22.4552 30.4059 1110 2
56.0242 18.6926 27.66 21944 1
54.6802 19.9806 29.6847 12513 1
55.3793 21.3772 27.2871 39988 2
56.6911 21.5296 29.9589 13500 1
53.2095 18.0164 28.5254 2787 2
60.2943 21.6978 27.3532 31298 2
60.7758 18.5849 30.0549 19184 2
59.4451 21.9284 30.5805 31285 2
60.4388 19.1076 27.6701 31004 1
58.0923 19.9245 28.5919 38509 2
64.606 21.4079 29.3481 21892 2
62.294 20.3747 28.593 31021 1
64.3934 19.188 27.5387 30371 1
63.9417 18.4755 30.0124 30999 2
35.8834 42.2934 27.0482 2056 1
66.7712 19.179 28.5546 31023 2
69.3503 21.0951 30.6811 19245 2
67.5734 21.6262 29.0235 31293 1
69.4013 19.7849 28.2056 30997 1
70.105 18.4602 30.2854 38366 1
64.9826 38.5514 26.8386 19236 1
66.7065 19.7994 30.951 20998 1
74.401 19.9774 28.2603 31289 2
71.6051 20.6349 29.1025 30996 2
73.7212 21.9937 30.8938 12413 2
72.7787 18.519 30.4492 21403 2
71.3616 18.183 27.5345 30343 2
18.4789 23.3024 28.6898 1928 2
20.3042 25.3011 29.521 1885 2
36.6522 74.8615 33.6307 4524 2
22.4217 26.6334 28.5981 52493 1
24.6262 22.4854 29.2385 25024 2
23.4058 24.5666 27.7495 25062 1
22.9298 24.6431 29.9906 1888 1
25.3214 25.006 30.0204 1945 1
25.2871 26.2913 27.8252 25061 2
26.4602 23.0818 30.6975 1884 1
27.634 24.152 28.5216 1943 2
30.487 25.3964 30.0263 40920 2
30.1661 24.7483 27.1605 933 2
28.0612 26.9289 29.419 39954 2
32.2826 23.061 28.9048 989 2
33.3909 25.4906 30.4654 1035 2
34.1859 24.7159 27.2734 1999 2
35.2958 23.2264 29.7302 25027 2
32.2478 26.6958 27.9776 43811 2
36.2961 26.0972 27.8563 40922 1
36.6867 25.7078 30.2839 2729 2
36.9496 22.9498 27.5224 40928 2
38.9815 23.6802 29.7602 3770 2
38.6972 25.6308 27.5125 43667 2
41.4674 22.5448 28.9845 40934 2
41.0548 25.2259 28.2796 1956 1
41.9186 25.3763 30.662 2782 1
43.4783 24.5923 28.559 41801 1
43.5006 23.4646 30.8346 22532 1
39.6662 26.7017 30.3593 1958 2
39.811 23.4079 26.7514 2790 1
45.4247 22.6561 29.053 43705 2
46.3126 25.4469 27.8348 40939 2
47.3869 24.9445 30.332 1153 1
45.0629 25.9462 30.2467 2837 2
49.0052 23.666 28.8666 40989 2
51.9514 23.5964 27.5673 19180 2
50.9727 25.9547 28.9297 2020 2
52.7182 24.6456 31.5353 2024 2
54.1758 22.7366 29.891 23176 2
53.5299 25.5135 29.2659 23642 1
55.3883 24.2201 28.0685 40025 2
55.2811 25.2143 30.7714 40030 1
57.088 23.7027 30.6258 23172 1
57.578 26.1689 29.3082 18330 2
57.8815 23.0962 28.1439 38629 2
59.4285 24.6653 30.4255 20148 1
60.3167 24.6932 27.9586 199 2
25.7767 74.5558 27.4997 63005 2
62.7506 23.0717 27.1576 30803 1
62.1086 23.2535 29.6552 19285 2
64.4112 25.3865 30.6952 20106 2
64.4676 23.9174 28.5808 18327 1
62.6888 26.1647 28.2124 19229 2
65.2982 26.5012 28.237 18337 1
70.0423 22.3659 27.7201 31019 2
69.1509 23.943 30.1677 1065 2
67.0367 25.6413 29.7195 19241 1
66.981 23.9766 27.6295 31294 2
70.1496 25.2805 27.5891 44061 2
66.4933 23.0413 30.8666 31002 2
73.0436 25.4041 27.8081 44079 1
72.1358 23.4147 29.1427 12457 1
71.588 25.7973 29.8401 30290 1
73.9092 24.7946 30.2747 43162 1
74.7311 22.9894 28.0875 39972 2
20.3058 27.0797 27.6396 970 1
18.2233 27.4364 29.0871 63548 1
19.4885 29.5646 27.9317 1933 2
21.5458 31.0921 29.7318 1071 2
18.4812 29.8395 30.6041 1936 2
21.0857 28.2 30.3058 63546 2
23.4163 26.7999 30.7093 63545 1
24.2379 28.8665 29.0192 1023 2
26.3568 29.7255 30.1603 40916 1
22.1096 29.1922 27.4013 975 2
25.846 27.3875 31.2 1025 2
26.6136 28.6369 27.9024 986 1
28.4809 29.6846 28.7415 19240 1
30.3699 28.2103 29.2408 983 1
30.5048 29.5602 27.2242 1020 1
33.0134 29.4325 28.2677 41885 2
31.9593 28.2991 30.985 41845 2
33.2237 30.6803 30.8698 1033 1
34.7283 27.6899 29.2227 40926 2
37.5054 28.0073 28.8408 2779 1
38.1103 30.3035 29.9127 2010 1
36.9653 28.4393 31.0251 1083 1
38.7056 29.9045 27.4466 1907 2
36.0405 29.3685 27.3925 2000 1
35.5525 30.4454 29.826 41893 2
39.8711 27.8865 27.9287 2836 1
42.5516 27.364 28.8821 41842 2
43.5699 30.1295 29.0364 43703 2
40.8505 29.8225 29.6897 40975 2
41.6462 29.2697 26.9522 1897 1
45.1347 27.9403 28.4169 40985 1
46.7398 30.1208 28.1062 41032 2
47.8562 27.4688 29.3676 40935 2
45.2834 28.9806 31.0564 41849 2
47.5747 30.2209 31.196 2072 2
49.3735 29.8145 29.0958 1954 1
50.8665 28.2355 27.5872 42717 1
50.809 28.3675 30.1598 2027 1
51.7923 30.6985 28.452 1163 2
50.3293 31.1506 30.961 42715 1
52.7325 28.1848 29.1123 40996 1
54.7933 27.8712 30.8567 20144 2
54.8685 30.0754 28.674 248 2
55.3567 27.2779 28.0553 19382 2
47.0353 18.2829 35.3511 21060 2
60.1041 27.0496 29.0683 246 1
58.0552 28.9371 28.6171 19231 2
61.327 29.3994 27.594 2792 2
59.9702 30.0266 30.1413 200 2
62.0525 28.102 29.9486 19243 1
64.3363 28.967 28.3299 19242 2
63.0834 30.48 30.181 20214 2
69.21 27.2158 29.9888 19186 2
67.8659 27.0199 27.6068 30998 2
66.3762 28.2652 30.1563 12515 2
67.1718 29.5429 27.921 30833 2
70.3121 29.6803 29.2265 43818 1
69.5504 29.2523 27.076 44057 1
74.1816 27.5866 29.7409 30993 2
72.5824 29.8009 29.4901 43804 1
71.7566 27.8798 28.0627 18339 2
71.566 30.9291 26.9606 43793 2
71.6391 27.9727 30.9833 18336 1
74.5516 30.0144 27.5337 39105 2
18.1564 34.743 29.7544 1017 2
21.1389 33.9966 28.2908 1060 2
19.4978 32.7142 30.708 1934 2
17.5458 31.9193 28.5511 63536 2
20.2168 31.7348 27.2778 72807 1
20.5627 35.2793 30.5383 63543 1
18.545 33.7269 27.1909 74584 1
24.4856 31.6319 30.3917 63681 2
23.8763 34.2716 29.3126 43702 1
22.27 33.6477 30.6336 1069 1
23.3681 32.0523 27.7084 72814 2
26.1728 33.5828 29.5945 1070 1
26.3509 31.2483 27.8244 40917 2
51.7498 44.6533 26.7774 2120 1
28.1776 31.7945 29.8746 40965 1
28.4113 34.0863 28.089 1031 2
29.8372 33.5872 30.2012 2916 1
29.2807 31.607 27.5982 979 1
27.8557 34.4057 31.018 1989 1
30.7898 31.1192 29.7566 1940 2
34.9418 34.0383 29.7583 24974 2
33.384 32.1343 28.9782 984 1
31.586 34.3001 28.5594 1029 2
31.8284 31.6512 27.1872 41022 1
36.4333 32.195 27.5387 1077 2
39.1174 32.6227 28.5091 1199 2
36.987 32.6266 30.2097 1080 1
38.1427 34.9792 30.1554 20283 2
39.1281 35.3977 27.5965 19202 1
36.3021 35.1291 27.5598 41937 2
41.2318 31.2741 27.8009 42701 1
40.5724 34.8428 29.1809 2002 1
41.9056 32.7243 30.087 2004 2
43.6818 32.6927 27.6646 41848 2
42.2723 35.7201 30.4449 2944 1
48.1132 31.9052 29.166 2942 1
44.1743 34.4927 29.341 2990 2
47.3558 34.4226 28.9622 2067 2
45.5834 32.1687 29.9546 43700 2
45.5228 75.1219 30.7929 21842 1
50.3978 33.5297 29.358 237 2
52.3212 32.479 30.769 2902 1
52.6873 35.1425 30.3218 2022 2
48.6802 35.1544 31.0218 236 1
51.3929 32.8535 27.02 291 1
56.4506 34.4146 28.453 19334 1
53.6798 33.1991 28.4004 20251 2
55.4934 33.7872 30.4443 1208 1
54.4913 31.7147 30.5543 249 1
57.1644 31.9656 29.3524 2077 2
60.6733 60.6205 27.0614 19579 2
59.5702 31.3218 27.779 1109 1
58.9871 33.8079 27.7507 241 2
59.4506 32.5534 30.0656 19233 1
57.7692 34.4786 30.3598 19235 1
60.336 35.1446 29.7985 2121 2
17.432 31.7193 44.692 62785 2
61.8084 32.5326 28.3137 1112 2
62.913 34.8892 29.4346 43165 1
64.5394 31.6892 27.6005 18380 1
64.2116 32.9918 29.6627 19341 1
64.769 34.5376 27.5447 19232 2
65.9685 34.6886 30.8186 20256 2
68.7406 31.4703 28.7782 20162 1
66.243 31.6783 29.8555 19289 2
66.9951 32.2047 27.2206 19288 1
69.4834 33.7557 28.4731 19293 1
67.2004 34.1215 28.3728 20215 1
68.4576 33.1973 30.4584 19347 1
74.5153 31.2354 29.9842 43989 1
73.6603 32.4625 28.1068 19297 1
71.3276 32.1663 29.5229 19246 2
73.5707 35.144 28.8626 43988 2
71.5821 33.8814 27.5055 18438 1
74.5504 33.7302 30.7266 19301 2
71.0705 34.4828 31.0146 19295 2
19.6189 36.0885 27.8474 74330 1
19.9594 37.2969 29.8526 63542 1
19.3745 39.7829 28.6949 63537 2
18.2338 37.9025 26.964 63669 1
22.3372 39.2375 28.3966 2045 1
22.4205 36.7621 28.7355 1988 2
24.9208 38.7831 29.2127 2036 2
25.65 36.1086 30.2313 1075 2
24.7503 36.421 27.5829 2034 1
22.8 36.0937 31.6258 1981 2
29.5472 36.3408 29.9726 1074 2
27.208 37.0179 27.85 41015 2
29.715 39.2137 28.76 1028 2
27.6493 38.4427 30.635 1122 2
30.1533 36.577 27.2143 1027 2
34.9545 38.4819 28.8072 2829 2
31.9478 37.6467 29.1997 1079 1
33.7322 35.9883 28.4447 41936 1
32.7556 36.1203 31.1375 1997 2
32.4075 39.2291 27.1303 1135 2
35.6211 36.6113 30.57 1995 2
37.9851 37.6072 28.7235 41068 2
37.4421 38.7335 30.9807 2061 2
40.7536 37.1104 28.7523 40988 1
42.5938 38.7762 27.3046 1204 2
42.7629 38.0389 29.7351 2066 1
42.6488 35.7966 27.4075 41024 2
40.0868 37.2438 31.3015 41994 2
45.7176 35.487 27.0934 1197 1
44.6121 37.1903 28.3158 1159 1
45.1744 39.177 29.3017 41031 1
47.2959 37.0069 28.8368 330 2
46.6238 38.7994 31.0792 25017 1
45.0696 36.7168 30.8443 2995 2
48.0759 39.8991 28.9657 2119 2
17.9299 62.1542 29.4849 55544 2
49.9928 36.0163 29.3391 41035 1
51.9669 35.7587 27.5783 1155 2
51.9393 38.1009 29.7614 1162 2
49.5494 37.6429 27.1551 40108 2
49.2688 38.1323 30.4496 1213 1
53.6318 38.6436 27.4253 18473 2
56.1823 38.5865 27.6965 41085 1
55.3658 36.4429 29.8726 20297 2
54.7055 38.8664 30.2667 388 1
54.7411 36.1383 27.0347 44000 2
57.3845 39.1694 30.2738 18430 2
57.9149 36.7393 28.1764 288 2
61.2091 37.8645 27.4687 18381 2
59.8278 37.8417 29.616 18376 1
58.6661 39.6739 27.7733 19282 2
58.3404 36.5127 31.0945 19276 1
62.3125 37.6909 30.3766 19286 2
63.7333 36.8846 28.3602 1119 1
64.8547 37.0259 30.6581 20213 1
65.9344 39.0444 31.0274 20260 1
64.376 39.0425 29.3695 44031 1
37.3721 18.2144 63.6758 16756 2
68.4913 35.5641 29.6942 19339 1
66.4429 36.8187 28.5751 19281 2
68.7872 37.9038 28.9158 19290 1
68.3413 39.1596 30.7526 163 1
67.3543 36.9576 31.3386 20208 1
70.6663 36.2976 28.3539 19349 2
70.8228 38.772 27.5043 18383 1
71.1276 39.1197 30.476 18437 2
72.5672 36.813 30.5318 25899 1
74.1414 39.038 30.3816 19352 2
72.9925 37.8716 28.3586 18386 1
74.7094 39.4519 27.7667 18489 1
18.9574 42.4107 29.6886 63648 1
20.0881 42.1129 27.305 63678 1
20.7623 41.2373 30.7119 63529 1
21.2398 43.7686 29.6205 63528 2
22.002 41.4891 28.7585 21093 1
74.9767 36.8834 44.9843 22966 1
23.1995 40.5111 30.5249 2039 1
24.3441 41.8215 27.8244 41066 2
23.5587 43.1832 30.3772 63091 2
26.0767 40.9959 30.2222 2037 2
26.0271 43.4763 29.4016 2969 1
27.2871 40.1386 27.7248 41016 2
28.3874 42.6602 28.5987 43701 2
29.3387 41.2414 30.8436 25055 2
30.659 41.6788 27.4677 41883 2
33.7705 41.6045 28.76 1998 2
31.209 43.2994 29.562 2090 2
31.7 40.4798 29.7969 41941 1
34.5907 43.5761 29.1289 2051 2
32.7988 42.0194 31.4061 1994 1
37.2163 40.4758 28.301 41072 2
38.5769 42.3277 29.7662 1202 1
37.3327 44.0592 28.2021 41939 2
35.9261 41.2151 30.6096 2053 2
17.7756 19.8381 51.4456 7334 2
40.2331 39.9698 28.9465 41984 2
40.0081 43.2091 27.6805 3133 2
42.1348 41.4499 27.5508 1200 1
41.1404 42.5719 30.2232 1198 2
43.0839 40.4648 29.7748 25047 1
43.7582 43.2388 29.1374 1251 2
44.403 41.0322 27.8758 25049 1
46.7688 42.5844 27.9973 1254 2
45.7906 41.4373 30.4947 25018 2
49.0411 42.129 29.3965 2113 1
50.8637 39.8846 28.2593 290 1
51.4757 42.5983 28.6599 289 2
50.5959 40.3997 30.7666 2074 2
75.0458 43.4653 53.9412 28292 2
52.9488 41.0521 27.1162 1167 1
53.2149 40.6691 29.5054 20299 1
53.8128 44.5088 28.0521 1307 1
55.6031 41.1393 28.3036 18427 2
54.1424 42.9599 29.7363 39218 1
56.7553 43.8168 29.9466 19337 2
57.8379 43.0152 27.0677 1350 2
58.1226 41.709 29.3182 18378 1
60.3168 40.5383 29.7713 20206 2
59.9529 43.2511 28.7134 1255 1
61.7209 42.9947 31.1457 20298 2
61.754 35.1107 27.0111 1111 2
62.3991 42.6878 28.8601 18479 1
62.6049 40.3177 28.6811 18379 1
64.5337 41.4578 30.3066 19338 2
64.3137 43.8933 28.9616 18435 1
66.7838 39.959 28.5307 18433 2
66.5893 42.6624 28.5719 19384 1
69.6305 40.9812 28.6658 18439 2
68.4889 43.2472 29.7206 19396 1
70.2079 41.8445 31.2302 19340 1
68.9716 43.6215 27.1797 18436 2
72.3157 40.2363 28.1871 18443 1
70.6394 43.7895 29.7594 19389 1
72.1213 41.845 29.7311 20353 1
74.6113 41.9281 30.1238 20361 2
71.7912 43.0808 27.467 19401 2
73.0183 44.3425 29.3414 2141 1
18.8521 44.7818 28.7157 63282 2
18.7604 47.2919 29.4781 63280 1
21.3373 46.6984 28.2666 53468 2
20.4485 46.1241 30.8762 48662 1
24.1216 45.0175 28.0484 63650 2
23.5645 47.7408 28.7671 2088 1
25.6613 45.8176 30.4666 2044 2
23.0296 46.1247 30.8658 63083 2
28.4516 44.3734 30.8132 2971 2
27.2678 45.7305 27.8616 41064 2
29.867 45.5087 28.6846 2049 1
28.2634 47.2095 30.0365 1131 1
28.3556 48.4749 27.7988 41062 1
30.7113 46.0084 30.8183 2046 1
30.8787 48.3627 29.2462 41946 2
32.9526 45.9376 28.4256 2157 2
34.6483 48.4724 29.1141 2095 2
34.9017 45.8539 30.6139 3952 1
32.5641 48.5809 27.2855 2092 1
32.855 44.7166 30.8222 2979 1
32.8504 47.4012 30.6552 2922 1
42.9312 74.8713 42.8898 6311 1
39.4265 44.693 30.0783 2156 1
39.33 46.3166 27.896 41124 2
35.7487 46.2382 28.266 41990 1
37.5205 46.8877 30.2863 2159 2
37.1662 48.415 28.148 2155 1
41.5656 44.8932 28.9085 1249 1
40.7594 46.6759 30.2156 1292 1
43.5706 45.9233 29.6118 2162 1
41.7649 47.4235 27.6713 1293 2
42.7821 48.0191 30.6759 25009 2
43.7391 45.263 27.4077 1257 1
47.6223 44.3378 30.3921 1253 2
44.8955 47.7745 27.9788 2169 2
45.8568 45.0271 28.5749 381 1
45.5944 46.7251 30.4117 21219 1
47.474 46.7554 28.8948 385 1
47.6941 48.4129 30.465 2214 1
50.4064 47.2642 27.2576 1305 2
49.2413 44.6956 27.9122 340 2
52.1293 48.0122 29.9329 1345 1
49.8091 46.5709 30.1848 2208 2
52.0686 45.1033 29.8187 25040 2
17.5021 69.1565 30.1914 55780 1
55.9455 44.68 27.5652 1264 1
52.9601 46.9572 27.6092 1298 2
55.013 46.0217 29.8522 1306 2
56.62 47.6388 27.4634 19426 2
56.8464 48.2261 30.9302 21280 2
58.5424 46.1048 28.8989 1303 2
59.502 44.3084 30.77 25046 1
60.8894 48.3932 28.8945 2172 2
61.7616 45.2964 29.1281 20338 2
62.7808 47.4708 30.7572 259 1
63.7105 45.1872 30.9542 20304 1
64.6187 46.4918 28.4784 19386 2
65.6444 47.1215 31.0047 25875 1
66.1258 44.2826 30.7637 21284 2
67.6558 45.7906 29.1058 21192 2
69.008 47.7244 30.8416 19439 2
66.5613 48.1852 29.2187 25042 1
70.825 45.9632 28.2017 19436 2
68.5734 48.3844 27.7573 18476 2
73.0857 45.7137 27.171 18542 1
74.1397 46.8863 29.2357 20313 2
71.7131 46.2201 31.0947 25873 2
23.4099 75.1538 74.6811 28826 2
19.4526 49.4689 28.3081 63274 2
17.9085 52.0488 28.2868 54461 1
21.3162 48.9627 30.0738 48858 2
20.1763 52.201 29.8594 63060 2
18.196 50.616 30.7124 63275 2
74.9026 71.0677 52.569 26185 2
26.0448 48.5537 28.9804 63281 2
23.5525 50.1132 29.1918 63527 1
25.2704 51.6046 27.6366 2085 2
22.454 52.055 28.62 63486 1
25.1723 52.0357 30.1587 63483 2
22.3997 49.5747 27.025 48669 2
27.5109 75.2656 66.0899 9827 1
28.0134 50.7409 29.0941 24951 2
29.5733 52.8364 28.5373 2040 1
30.5785 51.0438 29.7341 40237 1
75.2334 48.5026 56.6187 28349 1
32.6348 50.5718 28.584 41115 1
34.6027 50.9805 29.8935 41120 1
32.3369 53.1438 29.0607 2048 2
37.5175 51.1253 28.4714 378 2
36.8298 49.5322 30.2365 63642 1
39.141 50.9131 31.0115 1336 1
39.6226 48.8867 29.5551 1294 2
67.1107 74.9597 59.8162 28049 2
36.9873 52.3714 30.9327 2199 2
75.0149 24.5169 57.8193 5872 2
40.5515 51.927 28.8039 1339 2
42.5136 49.7507 28.2343 2200 2
43.7197 52.2933 28.3652 383 2
42.3558 50.6524 30.8762 2242 2
47.7514 49.1038 27.6213 41079 2
45.4844 49.7792 29.9898 1295 2
46.5949 51.7387 28.5652 394 1
48.3779 51.2651 30.6288 25836 2
45.8286 52.7067 31.0128 1389 2
48.8423 52.3959 27.5433 3092 2
49.972 49.6085 29.1843 2213 2
52.1663 49.8846 27.442 25001 2
51.0641 52.5032 29.7104 4065 2
52.4371 50.3677 30.1892 1301 1
51.7738 52.3967 26.8717 436 1
54.5883 49.1545 28.6986 19428 2
54.0463 52.1829 28.8722 25885 2
56.4741 51.2861 29.9222 25890 2
56.1185 52.9345 27.4068 19473 1
58.35 48.8048 28.8845 19470 1
57.1141 50.5461 27.289 1268 2
59.5097 50.8134 29.2494 3150 1
60.6032 52.6169 30.0209 19379 1
58.2174 52.8788 28.5915 1267 1
61.4575 50.3508 31.2013 20342 2
58.9621 49.5528 31.0319 1310 1
63.0169 48.6323 27.2879 1274 1
62.0752 51.1914 28.1878 19483 2
63.9788 49.2446 29.79 18534 2
64.8473 51.6498 28.6865 20397 1
64.2261 51.8028 31.2912 20392 2
67.7069 51.2215 28.8097 19482 2
69.514 50.271 30.1671 1224 1
68.9329 52.8308 31.1855 20391 2
36.5918 75.0798 59.9748 9930 2
70.7912 52.5739 28.694 19488 2
66.6737 50.0759 31.0027 20351 2
71.464 48.6882 29.3606 2268 2
74.225 49.1729 30.573 25005 2
73.2274 50.8107 28.0476 19532 2
74.0589 51.9888 30.3531 19485 1
19.0616 54.4619 28.1695 63500 2
21.6645 54.7907 27.675 63481 2
19.7716 55.3772 30.9078 63223 2
20.2062 57.1612 28.6266 48680 2
25.7104 18.2 28.7361 23170 1
22.2566 53.8439 30.3594 63046 1
24.1161 53.8667 28.5642 63235 1
23.2239 56.8865 27.9618 63634 2
24.6987 55.4595 30.6223 63188 2
22.157 56.2833 30.2477 63485 1
26.2242 56.9916 28.4229 63479 2
27.1853 54.0209 29.2237 2089 2
28.7852 56.9903 29.2497 3022 1
28.9155 55.2742 27.2408 40191 2
29.9562 54.8734 30.1885 40239 2
27.3894 56.4433 31.4666 2195 2
31.9311 55.6595 27.7099 42703 2
33.9546 55.1755 29.618 41977 1
34.66 55.8873 27.0728 41126 2
31.7209 57.3551 30.1436 2982 2
34.9156 57.4376 29.8034 428 2
35.5249 53.2421 28.768 41170 2
36.9054 55.679 28.6632 477 1
38.8295 56.2357 30.3814 3191 2
38.4608 53.8926 28.9611 19545 1
39.457 55.8884 27.421 1343 2
36.1424 54.9366 30.9243 376 2
39.6722 53.3884 30.9073 2201 1
42.8066 53.6054 31.2289 1388 2
40.8333 54.472 29.3408 481 1
42.2795 56.3389 30.3735 2289 2
43.2414 54.7714 28.4877 1386 1
42.2756 57.0394 26.9312 435 2
45.7361 53.9798 28.579 2240 1
47.6513 55.2667 27.3681 1348 2
44.7522 55.3519 30.3033 1347 1
48.2512 54.1843 30.1916 1297 2
44.9057 56.8982 27.8537 1390 2
46.656 56.4269 29.7089 1393 1
50.2349 54.5491 28.4747 19565 1
49.4406 56.7444 29.299 20463 2
51.7521 56.7087 27.7149 1399 1
52.1266 55.4494 30.3297 1397 2
52.4594 54.4119 27.9342 1352 1
54.6254 54.4762 29.5814 19469 1
54.4612 56.2761 27.5431 20435 2
54.537 57.0324 30.0094 19657 1
56.5864 54.819 28.5517 19517 1
56.854 54.2724 31.0886 25867 2
56.9596 57.2854 29.5564 448 2
60.6681 54.001 27.4879 20390 2
59.3474 55.1073 29.8849 25887 2
58.5132 55.5074 27.4955 18630 1
61.9321 56.278 29.0247 25865 1
62.7898 54.0148 29.7575 19476 2
64.546 56.7484 28.8129 19570 2
63.6761 53.6263 27.3823 18633 2
66.1029 53.7381 29.5796 19486 2
67.1843 56.5786 28.9575 19585 1
68.4384 54.453 28.7912 19523 1
67.7834 55.6029 31.039 20445 1
70.6009 55.2447 29.5202 19524 2
17.5747 41.1228 36.0953 63086 2
74.5823 55.1448 30.6265 20446 1
72.7291 53.9053 30.2718 20447 1
72.9655 53.3803 27.9356 20402 1
73.6404 56.2916 28.3608 20444 2
72.3138 56.2297 31.5618 19588 2
20.975 59.6747 27.5293 63438 1
19.1459 59.8575 29.2096 63040 1
19.3457 58.2445 30.9508 63185 1
21.9013 59.2002 30.0396 63183 2
23.8858 59.5469 28.0682 63433 2
25.2692 58.6166 30.6596 53648 2
25.6612 61.0046 29.3136 63042 1
24.0125 60.7569 31.0585 63186 1
26.7773 59.7207 27.7401 63410 1
27.922 59.3835 29.9903 63272 2
29.2938 60.6274 27.962 53557 1
30.4286 58.2507 27.7685 25023 2
30.6887 60.2485 29.9279 3012 1
33.1605 58.1992 27.7336 41981 1
32.9374 59.3441 29.9006 24941 1
32.3331 60.7061 27.6818 1382 2
35.3643 60.1437 28.8567 24999 2
37.4742 58.1003 28.3228 1338 2
37.7079 58.552 30.8118 1385 2
38.5379 60.6192 28.7882 24937 2
27.7227 18.3045 30.4855 1845 2
67.6613 17.6138 30.3663 30809 1
40.5323 58.1835 29.4011 429 2
43.3867 58.6726 29.266 1387 1
41.6123 60.095 27.8076 479 2
43.0911 61.2099 30.5607 1441 2
45.7383 60.1492 29.4629 1445 2
47.5361 58.6202 30.3472 2294 1
47.4595 58.4712 27.6461 1447 2
46.3728 61.3169 27.1734 1395 1
40.1624 75.0662 54.5551 27121 1
48.2195 60.7845 28.8187 1444 1
52.5895 60.9418 27.5738 2342 1
50.2699 59.2478 27.9113 19569 2
52.3683 58.5694 29.5874 1398 2
50.7502 61.1819 30.0222 25035 1
49.9343 59.0426 31.1267 3201 2
53.414 61.0819 29.7455 24996 1
55.0594 59.4035 28.3929 20473 2
55.98 61.3306 30.1064 25862 1
58.0235 60.1354 28.2991 19618 2
59.6526 57.5341 30.8068 444 2
60.3745 59.7743 29.6061 20476 1
59.8072 57.4675 28.0155 19575 2
57.8557 60.0312 30.9317 20477 2
62.1814 58.8317 28.21 19572 1
64.3258 59.4608 29.1563 19520 1
62.4805 61.1174 30.2572 19623 2
65.5516 61.5074 30.2883 20528 2
63.6829 61.7247 27.5428 19580 2
62.6857 58.2662 30.9594 20428 2
69.3128 57.3063 27.4394 19586 2
69.0987 57.8414 30.554 19626 2
66.0078 58.3272 31.1151 19578 2
66.6384 61.6124 27.5591 546 2
66.7484 59.0977 28.5376 1420 2
69.6459 60.4798 28.8615 20487 2
67.8889 60.3005 30.8342 20483 1
71.219 57.8685 29.1613 20488 1
74.4994 60.9331 30.2229 20497 2
72.9437 59.7935 28.2677 20485 2
74.2417 58.0276 30.2877 20489 2
71.4713 59.6154 31.3016 20537 2
49.4058 18.4832 57.5154 17596 2
20.9291 62.1054 28.4501 63425 2
20.2813 65.4749 28.1622 54635 2
18.978 63.2977 27.3218 53783 1
19.636 64.109 30.7048 63146 2
21.9934 61.9084 30.7564 63233 1
17.8107 64.9219 28.8673 55588 1
23.8369 62.4788 28.6204 54632 2
25.3737 65.0918 29.0409 63028 2
22.2612 64.4696 29.5919 48872 1
47.0055 18.2423 53.177 18384 1
23.6679 66.405 30.5999 55685 1
28.7613 61.7566 30.2719 48774 1
27.4736 62.6761 27.6876 63227 2
47.129 18.0273 70.9634 15485 2
28.8808 64.5325 29.879 63176 2
26.5667 62.9969 30.172 63043 1
75.0333 34.1367 67.9018 28712 2
30.632 62.6915 28.4354 24954 2
33.5297 62.0152 30.0367 3025 2
33.5265 63.7775 27.7368 19499 2
31.7486 64.7219 29.5604 2284 1
31.3085 62.5725 31.4417 22153 2
36.2013 62.035 30.5317 20458 1
36.617 62.6306 27.8485 2288 2
37.5596 65.4136 28.0815 2328 2
35.5955 64.4979 30.1095 3184 2
38.471 63.5487 30.3166 1384 2
39.3582 63.2247 27.9725 2286 1
75.0559 36.9817 47.5391 22970 1
40.6866 61.9878 29.4104 19607 1
42.1963 64.1443 29.2434 1439 2
40.6697 65.5935 31.0634 2331 1
41.5323 62.5694 27.2609 25906 1
40.1475 65.5702 28.6778 572 1
47.7104 63.671 27.5173 528 2
44.2644 62.3375 28.333 1391 1
44.358 63.5839 30.5629 1438 1
45.1318 65.0964 28.0817 1442 2
46.6858 62.9895 29.7188 1443 2
47.8601 66.0482 29.8135 19614 2
45.3483 65.6404 30.7033 19652 1
47.7098 66.2517 27.0431 525 1
49.3464 63.193 29.8375 25036 1
51.9559 63.2648 29.5085 19617 2
50.2199 65.465 28.0512 1446 2
50.9415 66.022 30.855 2388 2
50.2207 62.1672 27.3807 19660 2
55.9756 65.5889 27.3674 583 2
54.6792 61.8747 27.651 18770 1
54.5038 63.4617 29.2789 19665 1
56.0809 65.1676 30.695 2430 2
57.1374 63.0202 28.4695 20521 2
53.3688 65.9201 28.6048 2381 2
60.9248 65.33 28.6875 19670 2
58.6434 64.3804 30.1497 20522 1
60.0592 62.5871 29.0381 18729 2
61.3061 64.8468 31.3048 20566 2
62.6602 63.4252 29.0734 25860 1
65.1906 63.7808 28.6562 19625 1
63.9646 65.5485 29.3179 19624 1
64.0621 63.769 31.2455 20575 2
66.5573 65.8319 29.8626 21433 2
67.5331 64.2564 27.8892 602 1
68.0345 62.7403 29.5454 20533 1
70.2513 63.717 28.4413 20527 2
68.9433 64.7752 30.5706 25854 1
71.612 61.9645 27.3425 19632 1
71.8567 61.9342 29.8037 21396 1
73.5623 63.4392 28.2749 19679 2
72.4255 66.1014 29.063 21693 2
71.4182 64.0186 30.7706 19639 1
73.9892 63.9153 31.0213 22549 2
18.508 67.7646 28.4399 54678 1
21.087 68.2256 27.7077 63142 1
21.1408 67.4378 30.2529 63177 2
18.6089 66.7923 30.478 50692 1
19.8467 70.2661 29.5408 54810 2
21.9041 70.455 27.7078 63128 1
70.7392 71.7153 74.6655 26052 1
22.8813 66.8114 28.2863 63141 1
23.4714 69.2788 29.9598 54677 2
24.9871 67.6095 28.6454 63140 1
25.6972 69.9443 28.6803 63124 1
75.1833 68.0342 48.8294 25357 1
27.5495 67.5022 29.3171 63144 2
26.839 68.6753 27.0856 55682 1
29.2789 67.6332 27.117 1383 1
29.0783 69.9362 28.6687 63139 2
30.6349 67.1291 29.6644 63037 2
29.9512 69.2706 31.3139 63039 2
32.7294 66.4414 28.0767 24853 1
31.5393 68.8437 27.4881 63014 2
34.0042 68.5941 28.4833 48819 1
32.7136 69.7455 30.3423 4408 2
33.9845 66.9757 30.4549 5806 2
38.4602 66.2292 30.5367 2332 1
38.8483 69.8704 26.8722 4204 2
35.3461 69.7096 30.3057 3598 1
36.8619 67.9352 29.1314 2373 2
38.4747 69.9576 29.7325 2419 1
40.3144 68.1033 29.1355 1482 2
42.671 69.0249 28.4123 579 1
43.0549 67.1131 30.2614 2420 2
41.5646 69.5936 30.8191 1485 1
39.6692 67.026 27.0157 478 1
43.9775 70.7891 27.9595 530 1
42.471 66.6984 27.1363 527 2
45.5725 67.8877 28.5841 578 2
47.6209 69.3419 30.9262 3294 2
48.3018 68.1297 28.1552 1528 1
44.3046 70.0376 30.3759 1483 2
46.3401 70.5347 28.7394 3300 1
65.6401 49.5657 27.1313 20344 2
49.9347 68.1307 29.7596 2338 1
52.2842 68.0365 29.0563 2427 1
50.5649 68.4612 27.039 1488 2
52.4936 70.2467 28.3189 2431 1
51.6729 69.5818 31.2082 24995 2
54.4915 69.9962 30.0905 1533 2
55.5042 67.4689 29.3738 2425 1
53.75 67.4348 30.9603 2384 1
56.587 68.2724 31.633 2439 2
66.3089 74.9857 57.3112 27161 1
57.295 69.2853 28.6289 19667 2
60.6535 68.9889 28.3642 19718 2
59.8957 67.8258 30.6817 20569 1
58.3389 66.6672 29.0463 25882 2
58.706 69.9743 30.6846 25855 1
61.3236 70.3002 31.1743 20570 2
62.9616 67.1356 27.6259 18779 2
62.1643 67.3301 30.1506 20571 1
63.444 69.8583 27.2671 21779 1
65.384 68.1565 28.3713 20529 2
63.3809 69.2396 29.7443 21735 1
65.8373 68.9454 30.7771 19669 1
69.9718 66.1026 30.9589 23502 2
68.7598 66.7439 28.2112 18736 2
68.1473 69.1804 29.5458 22589 2
70.5453 70.4211 28.4913 18741 1
70.6291 68.2662 29.3644 25816 1
73.3916 69.0684 28.5711 2592 2
72.2615 68.2445 30.8088 25853 1
74.2282 69.7092 31.3265 21748 1
71.1942 67.866 27.1424 2396 1
17.9259 72.2316 28.0805 63105 1
19.4801 73.5563 29.9592 54859 2
18.2072 74.7606 27.5256 63363 2
20.7561 72.6958 27.506 54023 2
71.5422 72.9212 72.54 15179 2
17.619 40.0271 49.7065 62610 2
22.2576 74.2748 29.6756 63116 2
22.0387 71.9003 30.5388 62901 2
23.8035 72.0585 27.8624 63118 2
24.7981 71.705 30.2576 63010 1
24.906 74.3804 29.9658 4505 2
17.3993 39.6716 74.3118 62050 2
26.7961 72.3698 29.1369 48908 1
28.7717 71.9825 30.3028 4507 1
29.9053 72.7685 28.2568 3587 2
28.3735 74.2009 27.0296 3538 1
34.4293 71.2005 28.6501 21775 1
31.9494 71.3342 28.5547 4458 1
33.3748 73.6958 29.9063 3599 2
33.0636 73.055 27.3221 4512 1
31.2471 72.2182 30.9773 3543 2
36.7921 71.2919 28.7182 3597 1
39.2201 72.4238 30.2408 4520 2
35.7918 73.9051 28.2217 3602 2
36.2538 73.4097 30.8417 23876 2
38.4247 73.0002 27.4342 22511 2
42.9963 73.2387 27.2715 577 2
41.0611 71.075 28.1567 2374 2
42.2499 72.4012 30.0377 1532 2
40.6543 73.9924 28.2026 19699 1
32.7455 17.8236 61.2679 24604 2
22.1445 18.1319 61.6434 10014 1
45.2415 72.9192 29.1904 1487 2
47.7229 72.3281 30.1879 2424 2
48.1251 73.0052 27.2166 633 2
50.019 70.8232 29.1329 2426 2
50.0963 73.6369 29.2018 21736 1
52.4041 71.9488 29.7327 22630 1
52.2999 74.4182 30.7146 22632 1
51.6208 72.9948 27.3164 632 2
54.5843 71.2512 27.5713 25821 2
53.8231 73.6622 28.8449 21526 1
55.785 74.643 30.0646 21729 1
56.6935 72.1195 29.4222 21476 2
55.7035 73.7219 27.6878 12850 1
58.6944 74.5571 30.0471 20618 2
59.5623 71.7218 29.0747 20619 2
60.7616 74.0183 27.7429 21788 2
57.9117 73.8424 27.6873 25814 1
61.3922 73.6333 30.7796 21730 2
42.5078 74.8076 45.5876 8123 2
62.4221 71.506 29.0717 25856 1
65.2356 71.156 29.4741 20824 2
63.7608 73.8914 28.8006 22588 2
63.4991 72.1816 31.1179 25778 1
70.2757 72.8078 27.4072 22688 2
66.4673 72.9826 30.5879 22638 2
69.1263 71.8722 30.4109 21737 2
66.7608 73.8236 27.8001 21781 2
67.9554 71.5124 28.232 21740 1
69.2152 74.8048 29.3273 21787 2
71.9412 71.0746 30.6661 22642 2
72.6787 71.6565 28.2805 21785 1
71.9786 73.7973 29.6427 25817 1
73.9307 73.8299 27.7593 20834 2
74.3127 72.6852 30.587 21791 2
20.6487 19.1385 34.1982 2716 2
17.9673 19.5314 32.9096 59349 2
20.7793 20.4011 31.7997 25064 1
19.2406 21.7799 33.6445 20051 2
23.2788 18.9029 32.0422 20009 2
24.9989 21.7409 32.4054 24990 2
23.8489 19.4151 35.039 3701 2
22.4274 21.5227 33.9079 1841 2
25.8249 18.783 33.123 784 2
26.9561 21.0541 34.2611 2772 1
27.9583 20.6339 31.8082 2717 2
28.9583 18.7911 33.7603 1847 2
29.1525 21.7595 33.941 2776 1
30.7957 19.7459 32.6564 1891 2
33.1593 18.7419 31.7085 23637 2
33.6323 20.9822 33.7152 2775 2
35.8454 19.2512 31.4448 20120 1
38.7589 18.9869 32.062 21910 2
36.5346 20.5519 33.5985 1900 2
38.8426 19.482 35.2029 3663 2
39.0535 21.8227 33.8043 3662 2
17.5344 35.1449 66.5699 12129 2
41.2601 19.8767 33.1641 22582 2
41.4703 22.2922 34.8807 3717 1
43.7347 19.8226 33.2901 12875 1
44.0893 18.1741 35.4516 3667 2
17.7817 32.8031 58.4367 51337 2
45.528 18.3485 32.9908 22534 1
45.9893 20.8606 35.0565 2791 2
47.8989 19.9944 32.793 23264 2
45.3832 21.1228 31.8605 4627 2
48.7128 21.9993 34.8925 2736 2
50.1767 21.3313 32.5422 21895 1
51.2961 19.0189 33.1062 3670 2
49.6146 19.6539 34.8969 22528 1
51.595 21.862 35.4368 22570 2
53.3497 19.8088 34.7286 21898 1
53.029 21.6109 32.9614 2785 2
55.2017 21.0737 31.7214 23127 1
55.7635 20.4343 34.1602 22564 2
54.0679 18.6922 32.2017 22533 2
57.1814 19.252 31.4287 11602 2
57.6114 21.8655 32.4634 23632 1
58.3271 19.6355 34.4059 21893 2
59.5823 19.8115 32.1342 20993 1
60.0778 21.4845 34.0075 20141 2
61.0843 18.3203 33.8141 22527 2
63.6128 18.4453 32.8858 12512 1
62.1682 20.6603 31.3544 38322 2
64.6779 20.2919 31.7554 12897 1
63.1625 20.5522 34.2163 25850 2
65.3952 18.4621 34.8502 31025 1
66.4847 20.5489 33.5661 11550 2
68.7538 18.9469 32.627 30802 2
69.7484 20.5014 34.5295 1659 1
58.4388 75.0232 60.0054 28037 2
71.6184 20.3573 32.4411 22613 2
74.0131 21.7425 33.8631 30808 2
72.0852 19.9926 34.8822 12506 1
26.084 18.0685 52.8198 7347 1
19.2872 24.1822 31.7113 1930 1