ITEM: TIMESTEP    
0     
ITEM: NUMBER OF ATOMS  
77888     
ITEM: BOX BOUNDS pp pp pp
17.607 132.393    
18.0782 131.922    
17.6997 132.3    
ITEM: ATOMS x y z id type
20.1936 18.7622 20.6593 1839 2
18.5339 21.2284 19.2409 72779 2
19.7222 18.6936 17.9577 20011 1
21.6569 20.67 18.406 72830 2
21.3963 21.7761 21.2052 977 2
18.3869 22.3128 21.9375 20053 1
22.9549 19.7351 20.5324 23170 1
25.1385 18.5952 19.9427 22628 1
24.3425 21.1316 19.2304 72824 1
25.0802 19.8772 22.0782 1848 1
24.3137 22.3555 21.6537 25024 2
26.8684 21.0014 20.1324 1846 2
29.9729 20.933 20.6836 20062 2
29.8039 20.3195 18.0777 2719 1
27.6572 18.4271 18.8532 22548 2
28.4096 18.5261 21.912 1845 2
32.5798 19.6682 18.4981 24988 2
32.5892 18.8341 22.001 23637 2
32.7208 21.3478 20.7168 43709 1
35.0506 19.8642 20.5287 1851 2
37.1317 20.5822 17.8412 22537 2
39.2604 18.5498 18.259 1904 1
37.1984 21.8291 20.6459 1899 2
39.359 21.9244 18.6226 2790 1
37.2703 18.2335 19.93 22536 2
39.8455 19.9599 20.5825 1854 2
42.0038 21.5315 18.7919 40934 2
42.0099 18.3377 18.3074 23153 2
43.2148 19.3392 21.1802 23128 2
41.6493 21.7592 21.6132 3665 1
44.836 19.9433 18.6949 1099 2
47.7724 19.9535 19.354 40834 2
44.6685 22.4372 20.8129 43705 2
52.7464 18.3583 18.5058 2787 2
49.6874 21.8607 18.3607 40893 1
50.9476 19.8906 20.4021 22529 2
48.6516 21.22 21.5368 1908 1
52.3222 21.3678 17.7179 38365 2
54.1132 21.0765 20.1336 23176 2
56.7333 20.2804 20.6812 13500 1
55.4319 18.827 19.2216 21944 1
56.1605 22.3063 21.739 23172 1
53.588 18.5776 21.2035 12513 1
58.1069 19.8049 18.0618 38509 2
59.1182 21.7462 20.6563 31285 2
61.1549 20.269 18.9528 31298 2
58.9485 18.4741 20.6044 19184 2
64.5187 21.2304 19.0833 21892 2
64.1369 20.7666 21.7792 20998 1
63.9442 18.3144 20.4581 30999 2
63.1766 18.8718 17.9247 31021 1
66.2675 18.5484 18.3259 31023 2
66.5371 19.1956 21.8409 30802 2
67.7868 20.9789 19.6942 19245 2
70.2787 22.2341 21.4998 22672 2
68.6901 18.3508 20.1097 38366 1
69.0741 18.4307 17.7173 30315 1
73.5779 20.7737 18.5484 31289 2
73.0546 19.0476 21.1476 21403 2
70.7488 19.9941 19.1791 30996 2
73.1641 22.416 21.2358 12413 2
19.8882 23.8339 20.3006 25062 1
20.0718 26.3407 21.8929 1883 2
19.0788 25.7279 18.9189 970 1
21.6228 25.5142 19.1322 52493 1
25.4733 23.4285 19.0126 926 1
22.8401 23.3721 19.285 1942 1
22.3097 24.6545 21.3244 1888 1
25.0134 25.3961 21.6798 1025 2
24.3959 25.9101 18.7934 25061 2
27.1392 24.8258 19.8659 1945 1
29.2456 23.5786 20.7318 1895 1
29.9217 25.6608 19.1839 40920 2
28.4285 22.7858 18.077 1943 2
26.9227 23.2913 21.7366 1884 1
31.5028 22.8616 18.8624 989 2
32.9625 25.6772 19.7921 1035 2
34.735 22.5556 18.8484 40928 2
35.0308 26.228 18.0902 40922 1
34.0264 23.6525 21.7598 25027 2
31.1979 25.097 21.8537 25060 1
36.3936 24.9807 20.1238 2729 2
39.0772 25.9284 19.4156 2836 1
39.4852 23.5534 20.7574 3770 2
40.8479 24.3455 18.5624 1956 1
42.3428 23.945 20.7957 2782 1
43.2618 23.9943 18.6496 41801 1
42.7114 26.3898 18.0246 1897 1
41.8353 26.6177 20.5482 41842 2
47.7798 23.3348 19.9038 40989 2
45.1654 25.5405 19.6854 40939 2
48.3897 26.0613 18.273 23205 2
46.1904 24.4273 21.9934 1153 1
47.267 26.7808 21.5563 40935 2
45.6321 22.8775 17.7302 38643 2
51.0655 22.7773 20.7001 1110 2
49.9847 25.6959 20.9252 2020 2
51.3022 24.4648 18.1757 19180 2
53.1872 25.8846 20.9708 20144 2
53.7815 23.8033 19.2782 23642 1
53.6734 23.2635 21.7011 40030 1
56.4582 22.7504 18.9863 38629 2
56.0663 25.0846 21.0957 18330 2
54.8837 26.2149 18.3771 19382 2
58.8161 24.197 20.1918 20148 1
57.847 25.7477 18.7543 19227 1
58.8264 26.4408 20.8597 246 1
61.1749 25.2055 19.1403 19229 2
62.2276 22.6125 20.8492 19285 2
62.2458 22.8353 18.124 30803 1
63.5145 26.1887 21.5268 20151 2
64.5222 24.3135 19.3702 20106 2
65.132 26.5314 18.193 18337 1
66.1832 22.9196 21.4983 31002 2
68.9047 23.8109 19.317 1065 2
69.5381 26.5788 20.6685 19186 2
66.8198 25.4805 20.7313 19241 1
67.7795 26.3774 18.1056 30998 2
71.4056 22.5973 18.9897 12457 1
71.1427 25.0936 18.6883 30290 1
72.8263 25.9651 20.5082 1076 2
73.4198 23.7916 18.8735 43162 1
20.5659 28.0275 19.1723 1933 2
21.0679 30.5109 19.5003 1071 2
17.7901 28.213 20.311 1016 2
22.6373 27.1899 20.6452 63545 1
23.784 29.1076 19.1113 1023 2
24.9008 28.2028 21.472 40916 1
25.9704 30.8081 20.4171 20152 2
23.0968 30.3246 21.9587 1018 2
27.1528 27.5371 19.7949 39954 2
29.7188 28.3501 18.9268 983 1
27.7042 29.7869 18.1413 40965 1
29.316 30.801 20.3289 1940 2
30.7227 27.8517 21.4127 41845 2
32.3387 29.6601 19.1825 41885 2
34.8371 28.1562 20.3417 40926 2
34.9641 30.7416 22.0268 2010 1
32.8883 29.4961 21.8905 1033 1
37.0919 29.351 18.8969 2000 1
37.5784 27.6308 20.4599 1083 1
37.4355 26.9851 17.929 2779 1
39.8213 28.5309 19.0447 1907 2
40.7747 30.7278 20.2873 42701 1
42.8608 29.2389 18.7315 2001 2
42.7332 29.7957 21.9096 43703 2
44.4463 27.9443 20.5293 40985 1
45.5221 30.6832 20.2422 41032 2
46.5587 28.3454 19.2017 41894 1
47.8542 29.6347 21.4948 1954 1
48.4145 30.4864 18.3729 41898 2
48.9749 28.2416 19.7685 42717 1
50.3245 30.0993 20.4808 42715 1
51.4581 27.5863 18.9438 1165 2
52.2277 28.4451 21.4628 40996 1
51.7265 30.9203 18.1285 1163 2
53.2846 30.8015 20.9321 1164 2
54.1041 28.3858 19.6396 1105 1
56.8803 28.2279 19.813 19231 2
55.2141 30.4354 18.0778 248 2
55.1986 28.5272 22.0958 1973 2
59.3668 29.6121 21.4077 200 2
59.8172 27.9845 18.7346 2792 2
58.2622 30.336 18.8479 1109 1
61.2953 30.819 19.0381 1112 2
60.9802 27.3334 21.2093 19243 1
63.0227 27.9181 18.9829 19242 2
64.4717 30.8414 20.3369 19289 2
62.6823 29.1535 21.9565 20214 2
66.1495 28.0222 20.4188 12515 2
67.3318 30.9294 19.4852 20162 1
68.8953 29.5692 21.4305 20158 2
69.9823 30.9736 18.3817 19246 2
68.5006 28.8289 18.8544 43818 1
71.4351 29.1017 20.2625 19294 1
73.896 28.7991 21.756 19300 2
72.7644 30.2035 18.099 19297 1
73.6994 28.1977 18.9897 43804 1
70.9872 27.7273 18.0229 18339 2
18.6617 31.4537 21.0408 1017 2
21.2049 32.6169 21.4693 1980 1
20.3139 33.3409 18.7699 1060 2
20.7269 35.1129 20.8563 63543 1
18.0456 34.3331 19.9509 1121 1
23.3046 32.6478 19.6038 63681 2
23.2415 35.1096 21.1023 1069 1
25.7194 34.0163 21.4815 1075 2
25.896 33.0075 18.8772 1070 1
24.3444 34.8683 18.8468 43702 1
30.3504 33.8933 19.3458 1029 2
27.9763 33.1053 20.1988 1989 1
27.1188 35.3461 18.7534 41015 2
29.7061 33.2599 21.9525 2916 1
30.463 31.4734 17.7716 41022 1
34.9896 31.3269 19.3839 41893 2
33.1632 34.942 19.5876 2829 2
32.3662 32.1754 21.2611 24974 2
32.6328 32.4251 18.3446 984 1
37.8931 31.2532 20.6504 1199 2
36.181 34.2872 19.8218 41937 2
38.4203 33.5236 18.7936 19202 1
38.4559 34.1838 21.9271 20283 2
40.3327 33.1813 20.1419 2002 1
42.8787 32.2586 19.3558 41848 2
42.2477 35.0387 20.7777 2990 2
43.3705 35.0774 18.4701 1159 1
40.6337 34.6867 17.9943 41024 2
45.7259 33.8872 19.8941 2067 2
47.6977 34.9295 21.6085 236 1
48.241 32.2815 20.9542 237 2
48.656 34.4869 19.4618 41035 1
51.0655 32.9484 20.3887 2022 2
51.183 35.4518 18.3607 1155 2
49.8576 32.9957 17.9378 291 1
52.8403 35.343 20.6553 1208 1
56.4954 31.273 20.916 2077 2
54.4439 33.5186 21.5463 249 1
56.2773 33.9069 19.9645 19334 1
53.8627 33.3131 18.9035 20251 2
57.195 32.5558 17.7578 241 2
58.3773 34.9911 21.0969 2121 2
59.0818 32.4822 19.8422 19233 1
60.9067 35.018 22.0447 20213 1
61.1311 33.9057 19.4517 43165 1
58.8766 34.9524 18.3637 1119 1
61.6725 32.3843 21.684 20212 2
65.6929 31.8406 17.8956 19288 1
63.0948 35.5634 18.7005 19236 1
65.3942 34.3338 18.5778 20215 1
63.6226 33.5714 20.1354 19341 1
66.7777 31.359 22.0391 19293 1
66.4874 32.9959 20.2905 19339 1
68.1771 33.6097 18.0595 19349 2
69.3338 32.6006 20.9317 19295 2
66.6391 35.5197 21.0964 19291 2
70.4252 34.5105 19.4291 25899 1
72.5131 31.6659 20.451 19301 2
72.6785 34.6781 20.6938 19352 2
74.9506 34.5317 18.4182 25919 2
19.1954 36.2878 18.8001 63542 1
18.479 36.9021 21.421 63539 2
19.938 39.833 20.6866 63537 2
17.9626 38.4866 19.088 63669 1
22.0161 36.4316 18.7641 1988 2
24.7816 37.5046 19.8335 2036 2
22.2132 38.9031 19.7291 2045 1
23.6698 39.3602 21.7572 2039 1
28.3491 35.6456 21.7562 1074 2
29.6058 36.9371 19.434 1028 2
27.1019 38.5206 18.2441 41016 2
30.0743 39.8018 18.5378 41883 2
27.4641 38.6818 21.2893 1122 2
30.3065 39.1548 21.5947 25055 2
32.0556 37.2685 20.6217 1079 1
32.7515 39.5712 19.9723 41941 1
34.8582 37.5572 20.2321 1998 2
34.5173 39.1551 18.1194 41071 1
32.1762 37.499 17.8195 1135 2
37.6152 36.7222 18.8832 41068 2
39.4006 38.8592 20.8624 41984 2
39.5634 39.7336 18.1676 42706 1
36.9704 39.9593 19.3388 41072 2
37.4073 36.8178 21.9085 2061 2
39.826 36.0547 20.3615 40988 1
41.9745 37.7843 19.346 1204 2
41.9093 38.9182 21.9532 2066 1
44.1199 39.7175 18.892 25049 1
44.1391 38.2932 21.2267 41031 1
45.1734 37.0937 18.9728 286 2
47.5146 37.4867 20.6201 330 2
47.4614 39.6272 18.2917 41038 2
50.2487 36.0991 21.3531 1162 2
49.8483 37.9915 19.4389 290 1
50.9479 39.3764 22.015 2074 2
52.6261 38.0519 19.5263 18473 2
55.4911 35.7415 21.748 19276 1
55.0749 36.2569 18.8719 20297 2
55.3781 38.0839 21.026 388 1
60.726 36.6358 19.8202 19286 2
57.7837 37.8598 19.7627 18430 2
60.5058 39.0001 18.3867 18379 1
60.3314 39.3205 21.0785 20206 2
63.5481 35.8742 21.5155 19281 2
65.3115 36.6039 18.9283 163 1
63.3279 38.246 19.2959 18433 2
63.4076 39.337 22.029 19338 2
66.1401 38.5102 21.0034 20305 2
66.4484 38.8609 17.984 18436 2
68.7031 36.6229 19.0553 18437 2
69.394 39.6631 19.5561 18439 2
68.6461 37.8455 21.5476 19340 1
72.4082 36.0243 18.2237 18386 1
71.0846 37.9962 17.9853 18443 1
71.3259 37.2079 20.4535 20353 1
74.2133 37.082 19.4467 18489 1
72.643 39.7713 19.6646 20361 2
73.809 37.9003 22.0487 19402 2
19.1563 41.0147 18.1045 63678 1
20.3238 44.0962 18.3194 48570 2
18.0929 42.0259 20.285 63648 1
20.476 43.1628 21.3404 63528 2
21.8857 41.3603 18.2623 63278 2
17.7854 43.2275 18.1628 63651 1
22.3698 41.1813 21.0247 21093 1
24.7959 40.7893 19.551 41066 2
23.6389 43.5694 20.3916 63650 2
26.3524 42.9332 21.0585 2969 1
26.6875 44.2655 18.6819 41064 2
27.7588 41.3411 19.3156 43701 2
29.1022 43.7058 20.0679 2049 1
30.115 42.5323 17.7663 42710 1
31.255 42.1574 20.6034 2090 2
32.1195 43.79 18.5899 24950 1
34.5215 41.7032 20.0453 2051 2
37.9162 41.1584 21.6001 1202 1
36.7913 42.8214 18.4534 42033 1
36.8502 43.7829 21.3676 41939 2
39.1815 42.2793 19.5938 3133 2
43.1455 40.5519 20.754 25047 1
41.4991 40.8834 19.2392 1200 1
41.5178 43.344 18.2155 1249 1
43.1063 43.1911 20.6445 1251 2
40.6886 41.5075 22.0439 1198 2
46.0371 40.4347 20.9079 2119 2
46.22 43.4645 21.4009 1253 2
45.3534 42.3139 18.4704 1254 2
48.4072 42.6099 19.375 340 2
51.0476 43.2076 17.7892 2120 1
48.7497 40.0317 20.7252 2113 1
50.7385 40.5845 18.8976 289 2
51.1878 43.0031 20.6647 25040 2
52.8727 40.8199 20.6581 20299 1
55.1441 39.9762 19.0297 18427 2
53.2055 42.2853 18.7137 1307 1
54.9397 42.2641 20.6973 39218 1
57.0874 44.0284 21.3083 1303 2
55.8425 43.3237 18.2743 1350 2
57.5772 41.0854 20.4948 19337 2
60.3301 41.3487 19.2272 18479 1
59.9631 42.7751 21.5505 20298 2
58.5781 43.004 18.7404 1255 1
62.7477 40.7881 17.8989 19387 2
62.5676 43.5781 21.706 20304 1
62.3563 41.3563 20.6734 18435 1
63.7506 43.3279 19.4294 19386 2
64.7395 40.6627 19.599 19384 1
65.2599 41.9672 22.0075 21284 2
67.9411 40.136 21.8502 19389 1
67.022 41.1518 19.8172 19396 1
69.4164 42.7788 18.9415 19436 2
66.8079 43.8645 19.8672 21192 2
70.9584 41.4985 20.8252 2141 1
72.6581 42.7706 18.715 18488 2
73.5828 41.7555 21.8067 19447 2
71.569 44.2349 21.0442 20313 2
74.7603 40.6487 18.2959 317 1
18.1645 45.0496 20.1999 63282 2
21.3789 46.189 20.4001 53468 2
18.3729 48.5776 20.2741 63274 2
19.691 46.9141 18.5125 53549 1
22.011 48.0936 18.0473 48669 2
23.2793 48.1685 20.629 63527 1
25.0825 46.3735 20.0155 2085 2
23.2178 45.3064 17.735 2079 2
29.7609 45.2856 18.0206 41946 2
30.0738 47.9791 18.1137 2922 1
27.7297 45.7054 21.6286 24951 2
27.8603 46.9538 19.0103 2040 1
30.0096 47.8604 20.8286 2973 2
31.4356 45.1688 20.6532 2046 1
34.3108 44.9184 20.0143 41070 2
32.1284 46.516 18.577 41115 1
34.3538 47.7159 18.9777 2092 1
33.0478 47.3766 21.6536 2095 2
37.209 45.5327 18.841 41124 2
35.8969 46.9412 20.9625 63642 1
38.3381 47.2693 20.7572 2155 1
39.5304 47.7826 18.2872 1248 2
36.7165 48.3983 19.0991 41990 1
40.2205 45.2275 20.0592 1293 2
40.8736 48.2204 21.2558 1294 2
43.9326 47.9323 20.072 2169 2
42.7433 45.8231 21.3718 2162 1
42.6838 45.6824 18.6915 43750 1
44.7938 45.1634 19.8133 1257 1
46.9881 44.9571 18.9582 381 1
46.9493 47.5569 20.053 41079 2
45.15 46.2843 22.0471 21219 1
48.78 44.4971 21.5529 385 1
52.4421 44.9511 19.1735 1345 1
49.5051 47.2271 21.4252 394 1
49.7434 45.4182 19.2659 1305 2
52.4972 47.3604 20.505 19428 2
49.9881 48.1728 19.2189 1351 1
53.9145 44.5213 21.313 1306 2
54.7893 46.2436 18.6375 19426 2
56.179 46.9404 21.3276 21280 2
60.843 44.4048 19.0597 20338 2
58.0804 48.5161 20.0427 19470 1
59.3633 46.0832 21.6716 2172 2
58.0161 45.9447 18.881 20346 2
60.5604 47.8187 18.8518 19481 2
64.6893 44.6455 21.6803 25875 1
63.0023 46.0131 18.4504 1274 1
62.3221 46.5541 21.0871 18534 2
65.2221 46.6287 20.1027 20344 2
63.7507 48.2662 17.9432 19431 1
67.4167 48.0049 19.8847 25042 1
68.8053 45.9424 20.7351 19439 2
71.1346 46.5207 18.7002 19445 2
73.9114 45.7819 19.526 20354 2
71.7548 48.3923 20.6302 25871 1
73.7393 48.5144 19.1336 19492 1
18.8335 51.8418 21.1484 63500 2
21.2057 49.7638 20.4134 63632 2
20.5316 52.1682 18.6664 63634 2
17.6388 51.3532 18.5067 63484 1
24.9049 49.4291 18.6626 2084 2
23.9141 50.613 21.6792 63483 2
23.2554 51.8565 19.234 63235 1
26.3434 51.7119 21.4167 3022 1
27.1686 49.2075 20.6052 2089 2
27.6527 52.154 19.1977 24954 2
29.6433 50.2666 19.2769 41977 1
32.2011 49.6091 19.1999 41114 2
31.058 52.5827 19.6702 43152 2
33.7349 51.7289 18.5573 41981 1
34.9632 50.0276 20.5274 378 2
32.3815 50.8594 21.9765 2136 2
38.5579 50.2153 20.0563 18505 2
36.4831 52.2937 19.0697 428 2
39.0652 52.8407 20.351 477 1
39.378 51.8241 17.9891 25067 1
41.7045 50.4671 19.0994 431 2
44.0205 52.76 21.37 1386 1
41.6957 52.7219 20.9792 19545 1
43.6361 52.6747 18.8154 435 2
47.4482 49.7669 18.2607 336 1
45.673 50.638 20.3162 383 2
46.3339 52.218 18.1442 432 1
48.862 50.1899 20.426 3092 2
52.1633 49.4742 18.9083 436 1
50.636 52.0714 18.8188 1392 2
51.8648 50.533 21.3312 25001 2
54.9885 49.5372 20.0968 1268 2
53.4011 51.7299 19.3495 1352 1
54.3508 51.8954 21.644 19469 1
56.8112 51.8419 21.3219 1267 1
57.3398 50.5987 19.0451 3150 1
55.4375 51.4938 17.8463 19473 1
59.8726 51.159 19.9587 20390 2
57.7666 52.9493 19.2971 19517 1
60.05 48.9214 21.8869 20342 2
65.2263 49.2139 21.5063 20397 1
62.7373 49.7687 19.7696 19483 2
64.641 51.9461 21.2528 19486 2
62.2782 53.0679 19.2624 19570 2
65.2411 52.9345 18.1659 19581 2
66.0057 50.0696 18.829 19482 2
69.517 49.0455 19.7557 20352 1
67.7502 50.6456 21.6487 19488 2
68.9719 51.7113 18.6732 19489 2
73.5853 49.5314 21.7541 18592 1
71.6201 49.8988 18.1147 20400 2
70.9141 50.994 21.0715 19532 2
73.9404 51.5197 20.1192 18596 2
71.7309 53.0167 18.2759 19526 2
21.7829 53.1406 21.6339 63481 2
19.9299 54.63 19.8572 53557 1
20.4004 56.4488 21.7067 48680 2
18.9984 57.1118 19.0403 63468 2
21.7409 57.1595 19.484 63465 1
17.9698 53.9173 17.8381 48674 2
22.3054 54.3569 19.4778 63478 1
25.0625 53.6727 19.8062 63188 2
23.8072 56.2015 18.463 63474 1
23.5948 55.9734 21.4492 53648 2
34.0134 53.3389 20.6157 41170 2
35.134 55.4979 18.3428 63057 2
32.7372 54.1214 17.7493 25023 2
34.7005 56.4436 21.9974 1382 2
38.0656 54.3077 17.9241 1338 2
36.9807 54.7284 20.985 376 2
39.2313 56.5375 19.8171 1385 2
42.6986 54.9955 21.0137 481 1
40.99 54.317 18.8931 429 2
43.003 56.2012 18.933 19607 1
46.2772 53.1851 20.9137 438 1
45.2692 54.9821 19.1181 479 2
47.1901 56.3412 20.2892 1393 1
44.6841 57.3212 20.7623 1387 1
48.2084 53.8579 19.3934 1348 2
48.2822 56.5991 17.7123 18712 2
50.2635 53.1422 21.4526 19565 1
52.4345 53.4723 20.7814 1399 1
52.6501 54.1673 17.9189 1396 2
50.8292 55.1174 19.7044 491 1
49.7835 57.4006 20.6096 1447 2
55.1926 53.8624 19.626 20435 2
53.2381 56.2507 20.3637 1398 2
56.0083 57.2368 20.0217 20473 2
58.7468 53.1335 21.5972 25865 1
59.8913 53.5747 18.3925 18630 1
58.4767 55.7105 19.7971 1401 2
60.5913 54.5622 21.1318 19572 1
61.3363 55.894 18.9237 19575 2
62.913 54.213 21.6144 19520 1
62.5908 57.0898 21.3153 19574 2
64.172 55.2719 19.5686 19577 1
65.1279 54.9389 21.7475 19585 1
63.5567 57.3212 18.3448 19582 1
66.1049 56.2971 17.9932 19583 2
69.8608 54.1953 20.0595 19584 1
67.1798 53.8462 20.1366 19524 2
68.6168 56.7505 19.6668 19586 2
69.8749 55.1671 17.7984 18640 1
71.9538 53.4949 21.1377 19533 1
72.0135 56.0439 19.544 19535 2
73.94 54.774 18.2235 19531 1
74.294 54.8849 21.4459 25884 2
74.8939 56.8558 19.7731 18694 1
19.3486 59.2049 21.2915 63438 1
20.56 61.4715 21.2149 63410 1
20.3308 59.6529 18.7 63600 2
17.8521 61.3912 19.689 53700 2
23.2512 59.1273 18.7614 63184 1
22.1171 59.2931 21.4096 63433 2
36.6706 57.9674 19.9323 19499 2
38.9868 59.0409 21.4449 2286 1
39.5184 59.5802 18.7407 2288 2
41.8264 57.6887 20.8289 24937 2
42.2184 59.8715 19.3003 526 1
41.2073 60.7484 21.8775 1439 2
47.1181 58.5114 19.3056 1391 1
44.7426 60.1867 20.9819 1442 2
44.3985 58.5734 18.2399 1440 2
47.9895 60.9478 20.3608 1446 2
46.2112 60.7505 18.382 525 1
47.0413 58.4415 22.0313 1445 2
52.3086 58.8918 19.7378 19616 1
49.484 59.0641 18.513 530 1
50.5663 60.2472 20.7776 25036 1
51.6907 60.955 18.1115 535 2
54.1269 58.7016 21.2959 2342 1
53.2346 61.3706 21.0726 19660 2
55.7306 60.2677 20.2606 25862 1
54.4375 59.4124 17.8532 533 2
57.1725 58.1306 17.7437 19568 1
57.3441 61.0065 18.4325 18677 2
58.9813 58.6355 20.1867 19618 2
61.5301 58.662 18.9737 19621 1
61.58 60.4936 21.6203 18729 2
59.9909 61.2648 19.4104 19620 1
57.9527 61.3969 21.7206 20521 2
65.7266 57.4957 20.8431 1420 2
62.6624 60.9575 18.1987 18728 2
63.7204 59.289 20.086 19573 1
65.3968 58.8049 18.3722 18733 1
64.0105 61.4931 20.7187 1455 1
65.8964 61.7368 17.7226 18727 2
66.4045 60.5494 20.4911 546 2
69.0467 60.8147 19.5801 19631 1
68.4242 59.0341 22.034 20487 2
70.2346 61.4221 21.371 19632 1
67.843 59.2072 17.809 25903 2
73.5967 59.1482 19.5987 19635 1
70.8043 59.0959 19.8882 25902 2
71.7025 61.6145 19.2146 19589 1
72.5581 60.7669 21.5403 18692 1
74.4569 61.7605 19.2627 19587 2
73.5298 58.0475 21.8544 19593 2
74.8176 60.5391 21.7398 21645 1
19.9413 62.7831 19.179 63179 1
18.5523 63.7511 20.8842 63141 1
21.4946 65.0944 18.4387 63411 2
18.4529 64.7355 18.3604 53780 2
21.3651 64.2451 21.2664 63144 2
22.3419 61.8868 18.8565 63588 2
43.0254 61.99 20.3119 572 1
40.8757 62.3352 18.948 19546 2
41.4443 63.9546 21.762 2328 2
43.859 64.5171 19.8655 18753 2
43.8375 61.8833 17.7589 527 2
45.7454 62.4829 19.9831 579 1
45.558 64.0985 21.8791 18756 1
48.0291 64.051 20.7972 578 2
46.7496 64.2174 18.1195 577 2
50.7348 63.2539 19.8722 1487 2
51.6471 65.7064 18.7803 1535 1
50.2361 65.6346 21.108 19699 1
54.4221 62.0212 18.4382 18770 1
56.1329 62.781 20.2927 19665 1
53.8846 64.3981 19.6262 583 2
56.44 66.1245 19.2069 19710 2
56.3393 63.6022 17.9924 18774 1
57.6475 64.7383 21.9152 2430 2
61.7074 62.8818 19.7174 19622 1
58.8699 63.5831 19.1585 1453 2
61.6325 65.0556 18.7156 19668 1
59.3165 66.0836 18.7348 19662 1
60.4362 65.9583 21.0386 25882 2
60.1948 63.1847 21.8085 20522 1
63.9531 63.8249 19.0896 18779 2
65.8952 63.1355 21.4402 19624 1
63.1977 66.0425 20.7735 25901 1
65.9589 65.9131 20.6457 19676 2
67.7227 63.4784 19.2839 18737 2
70.3343 63.4424 19.4528 18742 1
68.0479 62.1993 22.0752 19629 1
69.1654 64.8928 21.8143 18736 2
71.1509 65.5971 19.9219 1461 1
72.4551 64.2705 18.176 25858 2
72.47 63.5439 21.3976 19679 2
19.476 66.5738 20.864 48693 2
18.3362 69.3588 20.7563 63128 1
20.1623 69.3071 18.8098 63371 1
17.6331 67.729 18.6732 54766 2
22.0379 68.4658 20.6207 54813 2
46.2737 66.6799 20.7204 1483 2
49.142 66.3647 18.5972 631 2
52.6355 66.989 20.7667 632 2
49.8017 68.6066 20.9035 1531 2
52.0413 68.4964 18.4976 21734 2
53.2054 69.8011 21.576 19711 2
55.0625 68.5373 20.2453 1536 1
54.132 66.9247 17.8057 19619 2
58.163 68.2749 20.7984 3391 2
61.2264 68.1144 18.9581 19666 2
61.1652 68.9097 21.8405 19667 2
63.5819 66.8353 18.5006 19675 1
63.9911 68.7334 20.561 19672 2
65.8667 67.6216 18.3226 602 1
65.5378 70.2773 21.976 21735 1
68.7064 66.5486 19.1755 19628 2
67.0458 69.296 20.0137 21739 2
69.5706 69.453 20.9205 21740 1
68.065 67.6298 21.6553 25881 1
71.368 67.1676 21.5919 2396 1
74.0082 66.4078 20.7953 21693 2
71.0766 70.3905 19.3178 21743 1
71.2954 68.011 19.2784 21691 1
72.7648 69.548 21.186 2592 2
73.6564 67.3393 17.9311 43679 2
19.8065 70.7092 21.7575 54814 1
21.2097 71.4957 19.684 63127 1
20.7824 73.0889 21.7349 63124 1
19.1865 74.0916 20.0444 63116 2
18.4774 71.2985 18.8976 54856 2
22.1834 74.1127 19.5571 3585 2
24.2308 74.4078 21.9372 3587 2
56.3671 70.9832 21.2774 25821 2
59.2108 70.7974 21.3317 2432 1
60.49 73.3562 20.4406 21778 2
61.7508 70.9785 19.4943 20865 2
64.3541 71.1452 19.49 21779 1
63.4435 73.7658 19.0601 20866 2
63.2393 72.4136 22.0023 21788 2
65.0245 74.8081 21.0692 21781 2
66.6319 72.3588 20.6222 20824 2
69.4859 74.229 20.9965 21741 2
68.8776 71.7974 19.1545 31283 2
67.5329 74.5365 19.1466 20827 1
74.0282 71.5152 19.3313 20828 2
71.2981 72.522 20.4292 18741 1
73.6751 73.3328 21.1361 21785 1
71.8454 72.5994 18.1487 19673 1
74.2774 74.4845 17.9985 43678 1
21.5512 21.4836 23.9641 25064 1
19.5671 20.1069 23.1799 1881 2
18.8785 20.1494 26.2827 59349 2
21.7726 18.9534 25.6604 2716 2
21.6144 21.9485 26.4929 1841 2
22.6825 18.6257 22.8512 20009 2
24.0191 21.1471 24.3621 24990 2
25.3346 18.5433 24.7953 784 2
26.3334 21.1476 25.8286 2772 1
27.1866 21.0841 23.2354 2717 2
28.2371 19.1927 25.2762 1847 2
28.6075 22.0116 25.4256 2776 1
30.6452 20.3194 23.7276 1891 2
33.22 21.2452 23.3317 987 1
33.2555 20.2555 25.9042 3653 2
34.8067 19.5157 23.4668 20120 1
37.6725 19.4116 23.0781 21910 2
38.8691 21.8691 22.993 3657 1
35.6531 21.5595 22.7009 2726 1
36.349 21.1877 25.4082 1900 2
38.6241 19.2315 26.1652 3663 2
36.0651 18.2952 25.1704 3659 1
39.3554 22.2891 25.7389 3662 2
40.9224 20.3965 23.7525 22582 2
43.6607 21.2261 23.0719 22532 1
43.4672 18.934 24.0127 21871 1
42.8438 22.1452 25.4313 2784 2
46.15 20.0339 22.1886 22576 2
45.4362 20.3563 25.0094 12875 1
48.2491 21.354 25.3406 2736 2
51.6477 18.1033 22.638 22574 1
49.1827 19.0734 23.2158 23264 2
50.4544 21.5896 23.4222 21895 1
52.0663 19.0198 25.2176 3670 2
51.4882 21.8498 26.0488 22570 2
49.526 19.282 26.1527 22528 1
55.7445 20.2582 22.9561 23127 1
54.8857 20.1122 25.7984 22564 2
52.9362 20.816 22.9845 2785 2
57.2282 21.0201 24.8131 23632 1
61.4662 19.5125 22.1553 38322 2
59.8744 19.6719 25.2662 22527 2
58.5959 20.5949 22.8669 20993 1
60.6865 22.0146 23.2423 20104 1
57.7153 18.1761 23.5655 11602 2
62.5534 20.8168 24.8485 25850 2
64.0519 18.7797 23.1927 12897 1
65.3351 20.9979 24.2344 11550 2
64.3355 18.7284 25.5145 31025 1
66.658 22.2261 26.4097 12415 1
70.205 19.3756 22.2137 22613 2
68.132 21.5976 23.5784 12867 2
69.9436 20.0103 25.0204 11516 1
67.3964 19.5296 26.1132 30814 2
68.2294 18.4131 23.8707 1659 1
72.61 20.759 23.7097 30808 2
71.9359 18.9642 25.6831 12506 1
74.1353 20.2098 25.8433 12412 1
18.4006 24.5873 22.77 1835 1
20.5698 23.5212 22.8539 1887 1
19.0997 22.8749 25.0536 20051 2
20.1873 25.3008 24.5348 1930 1
22.8967 24.189 24.1357 1886 2
24.4989 26.3453 25.9995 976 2
25.9738 23.9628 24.5071 1889 2
29.1805 22.7837 22.9576 936 1
28.2717 25.7766 22.373 1944 2
28.7044 24.2139 24.7158 2771 1
27.7107 26.7048 25.3655 2769 2
30.8254 25.9486 24.4576 1946 2
31.4573 22.7462 22.2357 25026 1
31.3789 23.0217 25.0933 2775 2
34.3342 23.2079 24.8276 1948 2
33.5935 26.6585 22.8319 25028 2
33.1942 25.4984 25.4687 2778 1
38.9722 26.1697 22.2589 1958 2
36.0232 26.7165 25.046 2828 2
37.1252 23.8468 23.2284 25025 2
36.2015 26.3249 22.3741 1951 1
38.9932 25.4779 25.1636 4664 2
37.0819 23.8269 25.9057 5526 1
40.9105 23.8232 23.4463 23152 2
43.7548 24.9771 22.9441 2837 2
41.898 25.1377 26.1409 3759 2
44.0233 26.423 25.2631 2006 1
45.8467 22.7492 23.9531 4627 2
44.6427 24.215 25.9044 21900 1
46.6691 25.7552 24.5258 2786 2
48.567 23.5962 22.8884 750 2
49.3002 26.4289 23.7984 2027 1
51.8147 24.0421 23.4864 2024 2
51.6242 26.7612 23.2029 42770 1
49.5817 24.4788 25.5125 1107 2
51.6858 26.4965 26.0676 2898 2
52.9632 24.0658 25.802 21056 1
54.4288 26.0749 24.0512 40027 2
54.9618 22.9068 24.1558 30857 2
56.7731 24.7515 25.0171 2028 1
60.7724 25.0458 22.468 713 2
58.1545 23.6009 22.977 20098 2
59.0952 22.7239 25.8321 20141 2
59.2582 25.403 24.9385 20201 1
61.4296 23.5779 24.9513 20096 1
64.003 23.4194 26.4379 25880 2
63.625 23.4267 23.3134 20100 2
65.7843 25.9884 23.2018 25879 2
62.9367 26.0222 24.6952 19684 2
66.1246 23.671 24.4391 12414 1
68.389 23.7062 25.4244 20160 1
68.6548 24.6146 22.8341 19196 2
68.4925 26.6923 25.2442 21054 2
74.7411 22.5762 25.2253 12481 1
71.3899 24.663 22.4114 19299 1
70.8174 22.8219 24.725 1651 2
73.3199 23.9636 23.7905 20157 1
71.477 26.0755 24.814 20113 2
73.6791 26.6431 23.3429 12863 1
17.7016 30.5801 23.4084 53355 1
21.3113 27.2283 25.7753 2763 2
17.787 28.2162 23.058 63548 1
20.4107 29.1814 22.2554 63546 2
19.2551 28.8026 25.1871 1936 2
20.9824 30.6405 26.3077 1982 1
21.9514 29.5369 24.4491 1929 1
25.7937 26.971 23.5109 25059 1
22.9847 27.2453 23.3303 1885 2
25.0832 29.3422 24.4912 1941 2
27.4811 29.0094 22.3936 1947 2
28.0457 29.7224 25.5706 2817 2
29.4999 28.213 23.8231 1949 1
30.2007 30.9897 23.3446 1950 2
30.7562 28.5253 26.3991 2864 2
31.7979 28.6245 23.8739 2872 1
34.2959 29.2781 23.9478 24982 1
33.303 27.8561 25.6596 24984 1
32.5884 30.9273 25.262 1993 2
36.7896 28.9631 22.8804 2831 2
38.8529 28.0687 24.5142 2873 1
38.2186 29.6103 26.2577 2862 1
35.5338 29.6108 26.3809 3752 2
39.68 29.2071 22.1425 40975 2
42.7298 28.4702 26.0606 2789 1
41.5598 27.2936 23.7928 2069 2
43.7674 30.3173 24.4812 3713 1
40.8572 30.2328 25.0189 2054 2
48.4036 27.0824 26.1725 2893 1
45.7579 30.4823 22.9513 2942 1
44.7938 27.9237 23.1391 41849 2
45.4415 28.4914 26.1421 2984 2
47.6851 28.8936 24.2627 2072 2
49.7661 28.2669 22.2472 2026 1
50.2265 28.5165 24.8938 3666 1
50.5456 30.9962 23.1116 25056 2
51.6684 29.9873 26.2037 1156 1
52.8328 29.0576 24.0775 23129 2
55.3517 29.2098 24.7786 2071 1
56.9427 27.3967 25.7842 3827 2
54.1006 31.02 26.1857 2029 1
57.5483 26.9921 23.1078 19234 2
57.4857 30.3776 23.8821 20145 2
60.3752 27.8585 24.088 25878 2
59.3139 29.4369 26.1063 2856 1
60.6889 30.9215 24.124 19238 2
63.067 28.9749 24.6182 20209 1
64.9215 30.6435 26.161 20150 2
65.3371 27.6271 25.8181 20207 2
65.7588 29.2754 23.3518 21002 2
62.2076 30.6423 26.3021 25846 1
67.8273 27.4892 22.684 20216 1
69.7717 28.776 23.9011 20159 1
67.9644 29.6346 26.0578 21044 2
70.9272 31.1618 25.4182 1129 2
70.7335 28.4221 26.1418 20149 1
71.4181 27.6293 22.3758 18336 1
71.3243 30.247 22.5728 19296 1
72.3941 28.8902 24.3319 19249 1
19.0586 34.1496 22.2905 2808 1
20.15 31.8565 23.7609 1934 2
20.1869 33.5537 26.2123 1977 2
21.6291 34.6534 23.5657 1981 2
18.3556 31.2929 25.985 2811 1
23.361 32.9956 22.4613 1983 1
25.3512 31.7043 22.9058 1986 1
23.1402 32.0282 24.9797 2863 2
25.2791 34.2312 24.3788 2042 2
26.4982 31.8214 24.9498 63326 1
27.6328 31.9259 22.645 1938 1
29.9377 31.7285 26.026 3749 1
28.4315 33.8606 24.4619 1990 2
31.5505 35.2336 22.2335 1997 2
34.6197 35.2635 22.2896 1995 2
31.3135 33.9398 25.0942 2908 2
33.4302 33.2439 23.4565 3754 1
34.1885 33.158 25.7291 21059 1
35.2278 31.6262 24.2709 4713 1
35.9811 32.876 22.2003 1080 1
38.002 31.543 23.9563 41895 2
36.5472 34.4332 24.5124 2931 2
36.5298 32.2208 26.3674 1991 1
39.8926 34.3721 24.7746 284 2
43.9606 32.5475 22.3514 43700 2
40.9312 32.2897 22.6333 2004 2
42.4001 34.8608 23.3838 2944 1
42.588 32.8389 25.209 1149 2
45.9408 31.7247 25.3859 24957 2
47.9041 31.4166 23.4665 2023 1
46.4704 33.2438 22.8565 1209 1
44.9658 34.1874 24.6531 21169 1
47.2795 34.8077 26.3954 2953 2
48.9445 34.1038 23.7916 2117 2
52.0448 32.0995 25.2471 2902 1
49.233 31.4814 26.0586 1160 2
52.0835 33.8301 23.0819 20248 2
50.7527 34.3865 26.4102 21177 2
56.4025 33.1854 25.6672 20255 2
54.5379 31.6874 23.6199 19326 2
54.6841 34.5911 23.9111 2123 1
56.7 33.3244 22.7452 19235 1
57.0356 35.5023 23.6629 19331 1
58.9435 32.321 22.3011 18373 1
58.7848 31.9436 25.9147 21089 1
59.358 34.1935 24.2276 20155 2
61.046 32.9749 26.2361 25877 1
64.803 32.9992 22.214 20210 1
63.5308 31.3446 23.683 20257 1
62.6352 34.1988 24.1567 20256 2
65.1671 33.0315 24.6595 20302 1
65.2237 35.1705 23.6476 20208 1
63.3509 32.7939 26.271 20203 1
69.5931 35.4908 22.1075 19345 2
69.1704 31.3437 23.4358 20153 1
67.3661 33.5817 22.9436 18372 1
66.9691 34.6015 25.1882 20265 1
67.132 31.7236 24.534 19344 1
69.0969 35.3646 26.1195 20211 1
69.3796 33.7623 24.4196 19347 1
73.9822 31.3306 23.3847 19346 2
71.5146 33.0988 23.1175 19350 2
73.3437 32.4637 25.6701 21104 1
74.5867 34.4551 23.5909 19355 2
72.0071 34.7896 25.6533 21150 2
21.8686 37.3475 22.1332 1979 2
19.0207 35.858 24.455 63540 2
19.8949 38.4638 23.3291 63318 1
21.602 37.5595 25.6612 2960 2
19.8009 39.7858 25.411 63307 1
23.5056 36.2273 24.4072 1072 1
25.171 36.9558 22.5 1985 2
24.0388 38.9725 24.4746 2911 2
25.5371 37.0466 26.2059 2047 2
28.5315 36.3437 26.0655 2914 1
27.2003 36.4125 24.0891 2041 1
27.552 39.1652 24.5079 2918 2
30.0202 37.1572 24.0614 2870 2
33.6672 36.074 25.2775 1996 2
32.2467 38.4144 25.5979 3847 1
33.0374 38.1043 23.0068 20156 2
34.859 38.9727 25.6633 3840 1
31.1243 36.3696 26.5046 3807 1
35.8423 39.4668 22.3415 2053 2
35.5105 37.364 23.8564 2052 1
37.8041 37.1576 25.0851 20236 2
38.654 39.7435 23.905 2926 2
37.2142 39.5515 26.4866 2981 1
43.0258 36.0587 25.6396 4669 2
40.4332 36.7077 23.09 41994 2
43.2516 37.3892 23.2904 2111 1
41.707 39.2513 24.6887 3037 2
45.1114 35.7979 22.191 2995 2
44.7058 38.9635 25.3119 2068 1
45.5952 38.4457 23.1715 25017 1
47.519 36.7473 23.2607 2070 1
45.5999 36.5435 24.8461 2954 1
47.3853 38.3137 25.7266 2114 2
48.1215 39.0554 22.992 1213 1
50.2422 37.1018 24.1684 3047 2
51.8572 39.609 24.5014 20296 1
52.7784 35.6153 24.9632 2997 1
49.5035 39.9326 24.8522 21183 1
53.2401 37.3181 22.7317 25053 2
54.1092 38.6373 25.011 3920 1
55.3927 36.3074 26.0313 20341 2
55.9249 37.6475 23.5025 25006 1
56.5166 39.8917 25.3255 20254 2
59.1176 37.1746 22.4251 18376 1
60.9707 35.865 26.0103 20202 1
57.5298 39.146 22.4294 18378 1
58.4878 37.2478 25.2527 19284 2
61.5453 37.4433 23.6146 20259 2