ITEM: TIMESTEP    
195000     
ITEM: NUMBER OF ATOMS  
77888     
ITEM: BOX BOUNDS pp pp pp
17.607 132.393    
18.0782 131.922    
28.8732 121.127    
ITEM: ATOMS x y z id type
19.101 19.2093 31.77 1881 2
19.3449 22.1457 32.1359 1887 1
21.5889 22.3879 30.7474 977 2
20.9694 20.5901 33.2582 25064 1
19.9711 20.5755 29.246 72779 2
22.1395 19.2827 31.1053 1839 2
24.7963 19.7695 32.0959 22628 1
24.1065 20.8419 30.0674 926 1
23.1316 21.2894 32.5735 1848 1
25.0282 18.5578 30.1025 23170 1
29.6458 19.7709 31.2535 20062 2
26.7681 21.0442 30.4201 1846 2
27.8916 18.5818 29.411 72824 1
29.8321 22.3366 29.7543 1895 1
27.191 18.2757 31.8792 1845 2
33.9226 20.4484 31.6893 43709 1
34.4201 21.5964 29.4616 19151 1
34.676 18.8517 29.4925 24988 2
31.8142 21.0749 32.4922 25026 1
31.9385 20.2835 30.0816 25063 2
36.5943 20.4852 30.7657 1851 2
39.4943 21.3054 30.68 22537 2
37.8928 21.9044 33.1048 1899 2
35.7056 20.78 32.9856 20120 1
37.8868 18.6517 32.2865 22536 2
40.0234 18.7295 30.3447 1904 1
40.8047 18.744 32.8225 1854 2
44.0996 18.7119 32.4859 23128 2
42.5916 20.2935 31.0255 21871 1
43.288 21.6094 32.7219 3665 1
40.6647 21.2406 32.8925 3657 1
41.322 20.1202 28.966 43666 1
43.3041 21.2535 28.8139 43668 1
48.7731 18.0685 73.3081 16028 2
45.2411 19.5113 30.1412 1099 2
47.5753 20.8942 30.3021 40834 2
47.4172 18.6139 32.1121 22576 2
45.8479 21.125 32.8236 4627 2
48.2879 21.8349 32.5414 1908 1
44.8636 22.6052 30.4167 43705 2
49.8753 18.7807 30.2775 38521 2
50.2103 21.5623 30.0055 40893 1
50.1725 20.1129 32.4632 22529 2
52.342 20.5748 30.62 38365 2
51.2383 22.5817 32.3907 1110 2
53.118 20.1 32.8768 22574 1
55.719 18.8727 29.9515 21944 1
54.8704 20.6194 31.5789 12513 1
54.8126 21.8691 29.3302 39988 2
56.4804 22.0748 32.263 13500 1
57.0317 19.3352 33.2185 11602 2
54.9931 18.4511 32.0037 22565 1
60.0437 21.7745 29.761 31298 2
60.5214 19.1772 32.1792 19184 2
59.6672 22.1358 32.2199 31285 2
60.0647 19.2363 29.6573 31004 1
57.7106 20.2757 30.5191 38509 2
62.245 20.6439 30.9188 31021 1
64.2765 21.7555 31.9206 21892 2
64.1528 19.6144 29.7882 30371 1
63.703 18.743 32.2281 30999 2
63.5021 22.3143 29.0259 30803 1
65.857 21.6209 29.2015 30838 2
46.8901 62.0452 29.1898 1395 1
66.2743 20.302 32.4572 20998 1
66.5798 18.7548 30.5092 31023 2
67.787 21.0544 30.6779 31293 1
69.5934 19.7282 29.9914 30997 1
70.6883 18.7244 31.9446 38366 1
68.4458 19.0477 32.0653 30809 1
69.3859 21.4876 32.97 19245 2
69.8879 22.338 30.3271 31019 2
74.8482 20.4976 30.4874 31289 2
71.8509 20.9189 31.1982 30996 2
73.3176 18.4812 31.797 21403 2
73.7005 22.3563 32.6405 12413 2
71.6452 18.354 29.3137 30343 2
18.48 23.3392 29.9266 1928 2
20.5235 25.1702 31.2618 1885 2
19.1795 24.1659 33.3245 1930 1
21.9041 23.5177 33.3312 1886 2
18.166 26.2144 29.0506 72780 2
24.4741 23.2906 31.2456 25024 2
23.2184 24.8868 29.7674 25062 1
22.898 25.4953 32.1324 1888 1
26.0121 25.5899 31.6131 1945 1
25.3258 26.8956 29.7367 25061 2
26.7989 23.0252 32.2743 1884 1
27.9405 24.0987 30.2307 1943 2
30.5078 25.6931 31.5481 40920 2
27.9929 25.3543 33.0896 1889 2
29.4547 22.6313 32.4432 1944 2
28.5871 27.0688 30.5828 39954 2
33.5721 22.5929 33.521 2726 1
32.2706 23.2049 31.1264 989 2
33.8183 25.3161 32.8725 1035 2
32.6713 26.571 30.501 43811 2
31.6189 23.7497 33.4316 25060 1
35.2789 22.971 31.6061 25027 2
35.4019 25.4234 30.369 40922 1
36.9062 25.2696 32.523 2729 2
37.2014 23.3835 29.8813 40928 2
38.1041 26.1957 30.2936 43667 2
39.4581 23.9443 32.012 3770 2
39.5246 26.4352 33.0567 1958 2
39.7117 24.0683 29.3794 2790 1
41.9563 22.9414 30.8402 40934 2
41.1381 25.8263 30.6581 1956 1
42.2869 25.6224 32.5586 2782 1
43.5741 25.1181 30.6057 41801 1
43.8243 23.7389 32.7725 22532 1
46.2887 25.3662 29.9432 40939 2
47.963 25.7065 32.3755 1153 1
45.0631 26.1606 32.4709 2837 2
46.7114 23.7019 32.1334 21900 1
49.1036 23.767 30.9044 40989 2
52.0936 23.6492 30.028 19180 2
50.7806 26.1772 31.4122 2020 2
75.0511 33.3066 74.593 27490 1
75.1363 51.631 71.8418 27693 2
53.9895 23.0819 32.1201 23176 2
53.3085 25.8043 31.614 23642 1
54.9384 24.826 29.7261 40025 2
55.7721 25.2779 32.0287 40030 1
57.3149 23.3264 30.1204 38629 2
57.8038 24.5493 32.3444 23172 1
57.7028 26.5465 30.5013 18330 2
59.7729 24.9138 31.4211 20148 1
61.1795 26.4327 29.8566 199 2
61.7542 25.8019 33.2638 713 2
61.8172 23.1965 33.3672 20104 1
62.1641 23.6853 30.6245 19285 2
64.961 23.8304 30.3014 18327 1
63.9444 26.2953 30.2833 19229 2
64.3146 24.7241 32.6644 20106 2
66.5379 25.5362 31.0513 19241 1
68.9773 24.9497 31.752 1065 2
67.6283 23.8767 29.4695 31294 2
70.4065 25.1376 29.2633 44061 2
66.8812 23.047 32.4328 31002 2
73.425 25.7321 29.6213 44079 1
72.236 23.6945 30.3331 12457 1
71.6748 26.0173 31.4218 30290 1
73.7518 25.1271 31.9289 43162 1
74.8182 23.1393 30.1027 39972 2
71.5324 23.8171 32.871 22672 2
41.7473 75.1058 32.2669 4521 2
20.493 27.0636 29.2301 970 1
18.8371 27.3291 31.1025 63548 1
19.069 29.3175 29.5207 1933 2
21.3938 31.0244 31.0322 1071 2
18.5493 29.7382 32.2396 1936 2
21.1728 28.283 32.0107 63546 2
72.8807 74.5795 73.6211 3564 1
22.7592 27.0235 30.4119 52493 1
24.3645 27.1452 32.5139 63545 1
24.0558 29.3215 30.7747 1023 2
26.1534 30.5288 32.0364 40916 1
26.7023 28.8624 30.1404 986 1
26.7198 28.0976 32.7141 1025 2
28.7543 29.7475 30.5587 19240 1
30.8106 28.4942 30.8505 983 1
29.8008 27.8835 32.8409 1949 1
28.7603 30.1258 33.154 1947 2
17.5929 54.258 55.8818 10362 1
33.2157 29.4849 29.9632 41885 2
32.4853 28.2081 32.7669 41845 2
33.2239 30.7983 32.3583 1033 1
35.2225 27.6269 31.3583 40926 2
35.7264 30.0975 32.3127 41893 2
37.7977 28.5793 31.1327 2779 1
38.4765 30.7954 31.4115 2010 1
37.0012 27.6422 33.2383 1083 1
39.2219 29.8199 29.2001 1907 2
36.0617 29.6044 29.7415 2000 1
39.0158 29.1296 33.4737 2831 2
37.4724 31.3432 33.6868 4713 1
40.0504 27.9095 30.9813 2836 1
42.9239 27.781 30.9077 41842 2
43.9546 31.1097 30.5217 43703 2
41.3504 30.2257 31.8472 40975 2
42.2356 28.0638 33.5495 2069 2
41.9773 29.5852 29.1544 1897 1
45.469 27.8586 30.5923 40985 1
46.831 29.9698 30.0992 41032 2
48.1227 27.6052 31.0026 40935 2
44.7829 29.483 32.4994 41849 2
48.1403 29.9792 32.7541 2072 2
49.5822 30.0686 30.4186 1954 1
50.9302 28.4041 29.7396 42717 1
50.7384 28.8996 32.0666 2027 1
51.9824 31.0012 30.2776 1163 2
52.8233 28.1492 31.1067 40996 1
52.9647 30.0636 33.1541 1164 2
54.9352 27.7267 32.2709 20144 2
54.9443 30.2922 30.6369 248 2
55.0727 27.4787 29.3808 19382 2
57.5433 29.1914 31.6912 19231 2
57.6325 29.115 29.1101 19227 1
59.7289 28.5033 30.5116 246 1
60.5265 30.57 32.2361 200 2
59.0208 30.7732 29.7894 1109 1
59.6025 27.2194 32.6891 19234 2
61.9773 30.0862 30.0585 2792 2
62.1191 28.1328 31.3611 19243 1
64.4627 29.1145 30.1538 19242 2
63.6239 30.8342 32.1487 20214 2
64.2033 27.8457 32.8793 20151 2
66.1844 27.2241 29.402 18337 1
68.8332 27.3133 29.9812 30998 2
66.6154 28.0592 31.9943 12515 2
69.7261 27.8628 32.4716 19186 2
67.1241 29.7675 29.9921 30833 2
70.0661 29.7144 30.6755 43818 1
68.3766 30.69 32.6082 20158 2
74.6542 28.1739 30.9222 30993 2
72.8064 30.2873 31.1146 43804 1
71.7504 28.0876 29.6424 18339 2
72.571 28.0037 32.3361 18336 1
71.2652 29.9644 32.7102 19294 1
18.5633 34.9967 30.7373 1017 2
21.3033 33.4479 30.2654 1060 2
18.3283 31.9913 30.695 63536 2
19.7583 33.074 32.8878 1934 2
20.5671 35.7604 32.1864 63543 1
70.9001 71.4247 70.6659 14222 1
23.874 31.8232 32.3873 63681 2
23.7793 34.5357 30.9783 43702 1
22.2034 33.9696 32.5757 1069 1
24.152 32.1672 29.442 72814 2
26.1298 33.2617 31.222 1070 1
24.7983 34.1206 33.0716 1983 1
26.7037 31.5112 29.6418 40917 2
28.4555 32.1114 31.5175 40965 1
28.3133 34.285 29.8473 1031 2
30.5583 34.0255 31.6902 2916 1
29.3366 31.7994 29.4174 979 1
28.2471 34.4085 32.4577 1989 1
29.9183 32.6744 33.4685 3749 1
31.0663 31.3309 31.2094 1940 2
31.0094 35.2472 29.4767 1027 2
35.0927 34.5052 31.0103 24974 2
34.6783 31.9274 30.844 984 1
32.7222 33.4652 29.955 1029 2
32.7973 33.4359 33.0594 1950 2
35.2868 32.6056 33.2679 21059 1
36.7399 32.2683 29.4469 1077 2
39.2858 33.6234 30.4532 1199 2
37.1904 32.886 31.8722 1080 1
37.1943 35.3563 29.5126 41937 2
39.5889 32.4723 32.8725 41895 2
37.6076 35.5017 32.1996 20283 2
40.9377 31.7044 29.6193 42701 1
41.9868 33.2165 31.4362 2004 2
42.9836 18.0846 51.4342 7360 2
43.3038 31.4514 33.2546 3713 1
44.9831 34.4629 30.611 2990 2
47.9219 34.4595 30.3603 2067 2
46.0213 32.2142 31.9705 43700 2
48.3687 33.0426 32.9022 2023 1
46.8461 34.8818 32.8447 1209 1
44.1824 33.7925 33.3333 1149 2
63.4817 74.6429 73.054 25110 1
48.4861 32.0585 30.8957 2942 1
50.2724 31.4007 32.4242 42715 1
50.5548 33.5867 30.8291 237 2
52.4122 32.4939 32.4576 2902 1
52.5226 35.2134 31.8937 2022 2
49.0916 35.3241 32.5812 236 1
62.2012 18.2693 30.2641 31316 1
56.0511 34.5692 29.9398 19334 1
53.9911 33.2406 30.3173 20251 2
55.5153 34.1863 32.1921 1208 1
57.0406 32.0862 31.5919 2077 2
54.7228 32.0271 32.5735 249 1
34.2842 17.9869 71.9212 3580 1
58.9663 33.7905 29.3458 241 2
59.5485 32.8576 31.8071 19233 1
57.6983 34.6839 31.92 19235 1
60.265 35.3683 31.6558 2121 2
58.8537 31.8199 33.7634 18373 1
61.7139 32.8747 30.2963 1112 2
61.906 33.0955 33.2222 20212 2
62.885 35.2737 31.1276 43165 1
64.3273 31.7347 29.4213 18380 1
63.8832 33.41 31.744 19341 1
64.7477 34.396 29.5192 19232 2
66.246 32.0248 31.4061 19289 2
66.0631 34.7852 32.5237 20256 2
68.5665 31.8503 29.9716 20162 1
69.6651 34.2368 29.9636 19293 1
67.3722 34.3327 29.7697 20215 1
68.6023 33.1813 31.9957 19347 1
74.1731 74.9941 66.7619 28987 1
73.5109 32.3025 29.8788 19297 1
70.9906 32.1848 30.9836 19246 2
71.7787 33.9582 29.3083 18438 1
70.9255 34.4236 32.402 19295 2
74.4367 32.8351 32.2429 19301 2
73.5144 34.8759 31.0218 43988 2
72.1865 31.9661 33.1256 19296 1
19.4174 37.5195 30.5321 63542 1
18.4511 39.2129 32.0182 63318 1
20.9764 38.3759 32.618 1979 2
22.0837 39.2433 30.3046 2045 1
19.7324 39.9652 30.1456 63529 1
22.1046 36.5044 30.2552 1988 2
24.3264 38.4897 30.9893 2036 2
24.405 36.3447 29.4575 2034 1
23.1606 36.3681 32.9851 1981 2
26.0944 36.0246 31.5929 1075 2
23.0655 40.1919 32.4082 2039 1
26.2067 39.6892 29.5395 41016 2
29.5156 36.6868 31.4839 1074 2
29.4354 39.5345 30.0136 1028 2
27.4934 38.6398 31.9407 1122 2
31.1234 38.9098 32.5488 2870 2
27.2951 37.1575 29.2555 41015 2
33.818 39.2958 29.2923 2829 2
31.6515 37.8905 30.1362 1079 1
33.5726 36.1728 29.3763 41936 1
32.4858 36.168 31.9401 1997 2
33.6417 39.1459 32.2708 20156 2
35.3075 37.2363 31.2921 1995 2
38.2247 37.6027 30.5678 41068 2
37.182 39.647 32.1507 2061 2
39.842 35.8244 29.0325 19202 1
40.6824 35.9933 31.1277 2002 1
39.6735 37.9954 32.5902 41994 2
42.6696 35.7118 29.5026 41024 2
42.5928 35.558 32.3305 2944 1
40.9598 38.1628 30.1749 40988 1
43.1097 37.6956 31.2424 2066 1
43.4959 38.802 28.9812 1204 2
45.1811 36.8784 29.7727 1159 1
45.6383 38.8897 30.7924 41031 1
47.836 37.1322 30.7969 330 2
45.0032 36.7286 32.5492 2995 2
46.8972 38.9771 32.6634 25017 1
44.4227 39.5389 32.7724 2111 1
50.3149 36.2402 31.0243 41035 1
52.3582 38.3502 31.6959 1162 2
49.5441 38.4404 32.3316 1213 1
50.5059 38.4931 29.4085 40108 2
17.4025 20.2537 61.7813 62264 2
53.5762 39.5293 29.3006 18473 2
55.8889 38.8208 29.6495 41085 1
55.434 36.7243 31.4869 20297 2
54.8144 39.3929 31.8668 388 1
53.6892 36.6207 29.3299 44000 2
57.3223 38.9545 31.739 18430 2
58.0298 36.5709 29.8311 288 2
59.75 37.9614 31.0267 18376 1
58.2898 36.8397 32.8393 19276 1
61.58 38.8794 29.5335 18381 2
61.5131 35.85 28.9797 1111 2
58.6421 39.9313 29.6352 19282 2
62.2057 37.5557 32.1405 19286 2
63.8516 37.0879 29.7374 1119 1
64.6354 36.7104 31.8083 20213 1
64.2864 39.0889 31.262 44031 1
65.8795 39.823 33.2974 20260 1
68.4869 35.6804 31.2939 19339 1
66.5471 36.9493 30.0475 19281 2
68.6852 38.2353 31.0181 19290 1
68.2365 39.6681 32.7814 163 1
66.5325 37.6339 32.6433 20208 1
69.5258 37.1192 33.2738 19291 2
70.633 36.6162 30.1438 19349 2
71.0403 38.9748 29.6253 18383 1
70.9803 39.2253 32.2577 18437 2
72.0806 36.7599 32.361 25899 1
73.9549 38.6759 32.5685 19352 2
73.1148 37.6481 30.2668 18386 1
20.5141 18.1337 44.9676 4553 2
18.7738 41.5626 31.7382 63648 1
19.7476 42.113 29.3808 63678 1
20.255 43.7701 31.5825 63528 2
21.3166 41.2733 31.0709 21093 1
21.6584 43.812 29.1211 48570 2
23.8502 41.4104 29.9163 41066 2
22.8571 43.2269 32.034 63091 2
25.5387 41.3073 32.0724 2037 2
25.425 43.7722 31.4499 2969 1
25.7928 42.9271 29.0729 41021 2
30.2608 42.1886 28.9829 41883 2
27.9183 41.8827 30.9015 43701 2
28.2257 43.8123 29.3833 42710 1
29.5643 41.2067 32.473 25055 2
30.7216 43.3853 31.1138 2090 2
27.7551 44.355 32.1242 2971 2
33.4463 42.1152 29.4127 1998 2
31.8219 40.5398 30.68 41941 1
32.298 41.8708 32.7635 1994 1
34.6969 41.4276 31.7698 2053 2
33.5944 44.237 31.5302 2051 2
35.3708 43.3703 33.1904 41940 1
36.493 39.8315 29.7587 41072 2
37.1482 42.2949 31.585 1202 1
36.1459 42.4522 29.4002 2056 1
39.0041 43.5099 30.2805 3133 2
37.8663 44.1082 33.3288 2153 2
39.2933 41.5631 33.1568 2926 2
39.4499 40.5892 30.5543 41984 2
41.7871 40.2104 32.2547 3037 2
41.8557 41.6657 29.7918 1200 1
41.4506 43.3327 31.9213 1198 2
43.9623 43.4575 30.2674 1251 2
43.828 42.1199 33.3605 2112 2
41.6441 44.0017 29.0116 41075 1
43.9336 40.7939 30.6927 25047 1
45.6315 40.6085 29.2199 25049 1
46.7092 42.9592 29.8356 1254 2
46.2756 41.5507 31.9703 25018 2
48.5701 40.1987 30.6978 2119 2
51.3302 41.0599 29.6274 290 1
49.204 42.6888 30.7385 2113 1
51.5454 43.479 30.7064 289 2
50.8805 41.0078 32.2628 2074 2
50.5332 43.8324 33.5453 2163 2
53.3278 43.3935 33.152 2116 2
53.2515 41.386 31.2217 20299 1
55.8772 41.5755 30.1984 18427 2
54.2813 43.5658 30.7035 39218 1
55.7329 41.5119 32.9756 2167 2
55.6031 43.9927 32.4668 24949 1
57.6227 43.6817 30.7843 19337 2
58.2359 41.3025 31.7252 18378 1
60.8589 40.7308 31.919 20206 2
59.8087 42.2715 29.9906 1255 1
60.0399 43.9397 31.4242 25046 1
61.8371 42.9635 33.1624 20298 2
63.1448 40.9209 30.88 18379 1
62.2305 42.9745 30.7194 18479 1
64.7298 42.4601 32.3008 19338 2
64.6427 41.9747 29.1901 19387 2
64.4303 44.3935 30.6672 18435 1
66.5529 40.1457 30.6153 18433 2
66.7488 43.3159 30.616 19384 1
69.4988 41.1642 30.6469 18439 2
67.6892 42.3242 32.7465 20305 2
70.716 43.5144 31.4007 19389 1
69.3093 43.4194 29.0935 18436 2
72.7183 40.1685 30.4805 18443 1
74.4449 41.7469 32.1939 20361 2
71.8122 41.6081 32.2028 20353 1
72.6182 42.9377 29.6836 19401 2
73.148 44.4716 31.618 2141 1
18.3556 44.414 30.3374 63282 2
18.8201 47.4187 31.2845 63280 1
20.9336 46.224 30.2138 53468 2
19.5258 46.0892 32.8746 48662 1
23.7657 44.8964 29.9022 63650 2
23.5299 47.3958 30.6616 2088 1
25.311 46.2292 32.3683 2044 2
22.2985 45.8191 32.7301 63083 2
26.0567 48.7084 30.939 63281 2
26.6789 45.8615 29.7238 41064 2
29.0982 45.7981 30.2301 2049 1
28.0415 47.2283 31.8728 1131 1
28.3044 48.3571 29.9013 41062 1
29.6001 45.5705 32.4493 2046 1
30.7139 47.8665 31.2373 41946 2
31.7442 45.4842 29.6728 2157 2
33.6779 47.2287 31.7387 2095 2
31.8877 45.6635 32.6164 2979 1
34.3452 46.7008 29.3853 40152 1
17.7381 61.4108 72.862 12281 2
35.3499 45.9065 33.5901 3952 1
36.1608 44.8694 30.8952 41939 2
39.1676 46.3458 29.904 41124 2
36.0573 47.5627 30.6635 41990 1
37.7721 46.9223 32.3953 2159 2
39.7563 45.3044 32.2001 2156 1
41.766 45.6002 30.7181 1249 1
41.0801 47.2621 32.41 1292 1
43.8647 46.4104 31.2844 2162 1
42.0912 48.03 30.0356 1293 2
43.3372 48.5328 32.6937 25009 2
47.7716 44.4261 32.3203 1253 2
44.9175 48.1636 29.6654 2169 2
46.0389 45.4129 30.3583 381 1
45.7167 47.3627 32.0666 21219 1
47.7279 47.2938 30.7261 385 1
45.01 44.6597 32.8113 19458 2
49.9194 47.9443 29.4345 1305 2
48.8911 45.1369 29.9547 340 2
52.0484 48.3265 31.4148 1345 1
50.3775 46.0011 31.8807 2208 2
49.8439 48.2356 32.6642 2248 2
53.1185 45.8373 31.5894 25040 2
55.6652 45.9921 30.7228 1306 2
56.6179 48.2085 32.1396 21280 2
53.9869 48.0208 33.0531 3089 1
67.2336 74.9356 65.3319 27998 2
74.9566 27.0439 33.6335 1076 2
57.4683 45.2428 32.8519 1262 1
59.0346 46.3566 31.0281 1303 2
61.2064 48.6018 30.6456 2172 2
60.4049 47.6001 33.3257 19429 2
61.8357 45.6369 31.2873 20338 2
51.9367 72.6254 29.0604 632 2
63.1641 47.4895 32.7127 259 1
63.9258 45.353 32.7026 20304 1
64.2125 46.9796 30.1019 19386 2
65.7585 47.6543 32.5085 25875 1
68.5175 44.5915 31.2899 19396 1
66.5613 45.955 30.5268 21192 2
68.3803 47.1384 32.1463 19439 2
68.9192 48.4736 29.6148 18476 2
66.4878 48.7452 30.4173 25042 1
66.5501 45.0624 33.2383 21284 2
17.4665 51.6168 66.181 13099 2
70.8562 45.9933 30.9567 19436 2
72.9296 45.9736 29.3611 18542 1
74.305 46.8557 31.361 20313 2
71.7828 48.3712 31.3429 2268 2
73.274 48.837 29.026 19445 2
21.4282 48.5382 31.7854 48858 2
18.7436 50.6687 32.3618 63275 2
19.0874 49.8497 30.201 63274 2
20.1502 52.5974 31.2048 63060 2
18.3007 52.3695 29.2584 54461 1
38.1644 18.1525 58.7003 9984 1
22.3743 51.424 29.9171 63486 1
25.3534 51.2304 29.142 2085 2
22.0757 50.8354 32.6459 63234 2
23.9864 48.5101 33.3294 2963 2
23.7385 49.583 30.6498 63527 1
24.9176 51.8469 31.5072 63483 2
26.5895 50.5992 32.8874 2091 1
27.3991 75.1196 66.1096 9827 1
27.8133 51.0406 30.6846 24951 2
29.9161 52.628 30.5445 2040 1
30.507 50.4809 31.2817 40237 1
28.9387 49.2649 33.0725 2978 2
28.6537 52.152 33.0811 2973 2
66.1449 18.3004 59.2364 29013 1
32.593 49.4845 30.3646 41115 1
34.476 50.0524 31.8796 41120 1
32.6307 51.9274 30.8142 2048 2
35.0273 49.422 29.2488 41077 2
32.286 49.3554 33.1625 3028 2
33.918 52.4709 33.6209 3083 2
31.1732 52.2031 33.1513 41114 2
37.6288 48.8944 29.4748 2155 1
38.9342 51.1778 29.4321 378 2
36.7959 49.5238 31.7078 63642 1
38.3735 51.6843 32.6879 2199 2
35.8896 51.9438 30.9005 41170 2
39.486 49.099 31.2238 1294 2
40.6419 51.6767 31.9028 1336 1
42.4627 50.4773 30.1676 2200 2
42.9627 51.6573 33.0882 2242 2
44.0448 52.8869 30.444 383 2
47.435 49.2706 32.2223 2214 1
47.5861 49.9122 29.5978 41079 2
45.2813 50.4109 31.6848 1295 2
46.732 52.5223 30.7916 394 1
48.228 51.6618 32.5941 25836 2
48.8191 52.8024 29.3505 3092 2
50.3179 50.4596 30.7998 2213 2
52.5891 51.0452 31.8413 1301 1
51.0806 53.135 31.3977 4065 2
38.3148 75.0179 60.2687 9885 1
54.383 49.2807 30.7882 19428 2
53.6957 52.2665 29.8742 25885 2
56.3703 51.2773 31.3391 25890 2
55.9558 52.9728 29.1995 19473 1
58.4208 49.0633 30.3266 19470 1
59.533 50.9926 30.8696 3150 1
59.1074 49.4587 32.4561 1310 1
58.7818 52.1391 33.0734 20437 2
58.4409 53.1121 30.5539 1267 1
61.592 50.4616 32.8947 20342 2
62.2706 51.5874 30.0066 19483 2
64.1095 49.6615 31.1837 18534 2
65.5966 51.8237 30.5675 20397 1
63.4606 52.5961 32.16 20392 2
64.801 51.7795 34.2056 21242 1
41.7374 18.2729 56.0459 6414 1
68.0199 51.13 30.5886 19482 2
69.319 49.542 32.1466 1224 1
69.9621 52.637 29.4429 19488 2
66.7441 50.196 32.8249 20351 2
67.245 52.561 28.7212 313 1
68.3853 53.0361 32.5908 20391 2
74.8653 49.336 32.3894 25005 2
70.8953 50.259 29.9129 20352 1
73.6626 51.0951 30.6242 19532 2
71.0055 51.6002 32.1121 20394 2
73.4659 51.524 33.2893 19485 1
72.5199 53.3223 30.2562 20402 1
18.501 55.0116 30.3269 63500 2
20.8636 54.0907 29.0744 63481 2
19.3281 55.3513 33.166 63223 2
20.6741 56.9999 31.0128 48680 2
21.6567 54.7012 31.894 63046 1
25.9232 53.9653 29.2807 2084 2
22.9971 56.9039 32.1597 63485 1
23.0804 53.4983 30.4894 63235 1
22.5943 56.0813 29.5421 63634 2
24.6355 54.9162 31.9523 63188 2
25.3279 56.7975 30.3709 63479 2
27.4142 53.8972 30.9417 2089 2
27.678 56.7813 30.8393 3022 1
29.172 55.117 29.6993 40191 2
30.1938 55.0634 31.9886 40239 2
27.2113 55.8036 33.1142 2195 2
32.1588 54.8736 30.2065 42703 2
34.2812 53.8026 31.4049 41977 1
34.5374 56.0942 32.1592 428 2
32.4547 54.7154 33.0073 2980 1
34.7533 55.8717 29.2125 41126 2
36.6296 55.1964 30.6305 477 1
38.2261 56.0054 32.7891 3191 2
38.2257 53.6355 30.9715 19545 1
39.2388 55.7947 29.555 1343 2
36.481 53.9949 32.9285 376 2
41.4076 53.2155 30.0097 1339 2
39.896 54.0003 32.3217 2201 1
41.0566 55.7554 31.5208 481 1
43.2557 55.4535 30.5424 1386 1
42.702 54.5402 32.8958 1388 2
42.9174 57.611 32.5465 2289 2
41.8134 57.3001 29.5888 435 2
45.5537 53.4346 32.9838 1389 2
46.0218 54.656 30.5149 2240 1
45.0474 55.8706 32.1221 1347 1
46.8362 57.0185 31.2943 1393 1
48.1959 54.6131 31.8334 1297 2
44.6577 57.6712 30.1058 1390 2
47.632 55.8354 28.7999 1348 2
49.9872 55.0753 30.1965 19565 1
49.3822 57.338 30.9784 20463 2
51.5954 57.05 29.4835 1399 1
52.4599 56.0059 31.7741 1397 2
52.3478 54.7501 29.4549 1352 1
50.3059 55.5265 32.9505 2292 1
54.0848 53.173 32.4354 20340 2
54.4849 54.9699 30.5081 19469 1
54.735 57.1497 31.686 19657 1
56.7486 54.4245 31.8867 25867 2
56.4908 55.4318 29.4892 19517 1
54.2741 57.016 28.9692 20435 2
60.6127 53.0526 31.2808 19379 1
57.0584 57.4346 30.7936 448 2
59.2775 55.5842 30.5864 25887 2
61.6774 57.2551 30.247 25865 1
61.7245 55.3157 32.4068 19430 2
62.5824 54.6163 29.8115 19476 2
64.2765 57.0037 30.2701 19570 2
64.5504 55.532 32.886 19478 2
65.5971 54.5091 30.6008 19486 2
65.9765 52.9397 32.6381 20343 1
66.9323 56.7164 30.3277 19585 1
68.1338 54.3699 30.264 19523 1
67.3693 55.5263 32.2946 20445 1
69.5056 56.6992 29.1766 19586 2
69.1784 57.5974 32.1367 19626 2
70.4197 54.9507 31.3757 19524 2
73.3713 55.7617 30.3744 20444 2
74.5952 55.5744 32.8322 20446 1
72.7243 54.0571 32.5524 20447 1
72.2529 56.5169 33.3443 19588 2
18.0586 58.1252 29.9337 63187 2
18.6581 60.4408 30.8449 63040 1
18.9825 58.4449 32.5053 63185 1
21.3995 59.9341 31.7547 63183 2
20.3981 59.6018 29.4626 63438 1
23.3022 59.1264 30.3978 63433 2
25.5568 58.4917 32.5893 53648 2
25.6092 61.1103 31.3669 63042 1
24.0157 60.7915 32.8589 63186 1
25.8775 59.0749 29.8083 63410 1
40.4742 18.2637 59.9891 4636 1
27.9192 59.761 31.4782 63272 2
29.6363 60.6659 29.688 53557 1
29.9285 57.7668 30.0073 25023 2
29.236 57.7528 33.0278 3023 2
29.0018 62.0471 31.6964 48774 1
30.4995 60.0994 31.8591 3012 1
31.9048 57.6401 31.9677 2982 2
34.2812 58.5586 31.5534 24941 1
32.3951 60.0435 29.8128 1382 2
32.5131 57.4498 29.4566 41981 1
35.3587 60.7312 30.9979 24999 2
36.8371 57.7294 30.8651 1338 2
38.2449 60.6778 30.9619 24937 2
36.9091 61.5072 33.2222 2330 1
36.8624 58.6901 33.3015 1385 2
39.9343 58.1417 31.7534 429 2
42.628 59.5879 31.0351 1387 1
41.015 60.0906 29.2793 479 2
40.8284 60.5841 31.998 19607 1
43.3133 60.4561 33.2517 1441 2
45.2371 60.348 31.0226 1445 2
47.456 59.404 32.1956 2294 1
47.306 58.9455 29.4596 1447 2
45.3346 58.291 33.0662 20511 2
46.0767 61.0246 33.4426 2337 1
17.814 57.2758 72.3997 14093 2
48.6117 60.8256 30.7588 1444 1
52.3467 61.2523 29.3423 2342 1
50.4013 59.5941 29.4116 19569 2
52.4063 58.8056 31.1464 1398 2
50.939 61.2106 31.6394 25035 1
49.9632 58.9849 32.6213 3201 2
48.8647 61.6002 33.4798 2387 2
53.5825 61.2738 31.6601 24996 1
54.9788 59.4921 30.2001 20473 2
55.7018 61.4213 31.6056 25862 1
54.8408 59.0564 33.4006 20470 2
59.5831 57.6221 32.2719 444 2
50.2247 74.8464 44.9931 7274 2
58.0156 60.5189 29.8996 19618 2
60.319 59.8535 31.0599 20476 1
57.5323 59.8928 32.3206 20477 2
62.4549 59.7665 30.2803 19572 1
64.4885 60.2103 31.7908 19520 1
62.2223 61.3971 32.2349 19623 2
62.5285 58.3046 32.5173 20428 2
64.9152 59.5213 29.3447 19574 2
65.8058 58.2691 32.4111 19578 2
67.6374 59.0207 30.007 1420 2
69.5018 60.8069 31.3987 20487 2
66.9568 60.5159 32.624 20483 1
66.4152 61.7665 30.2772 546 2
71.356 57.5665 30.9611 20488 1
74.1446 61.3194 32.4454 20497 2
72.3663 59.9152 30.2682 20485 2
74.2017 58.1294 31.8583 20489 2
71.5975 59.3258 33.1449 20537 2
20.3632 62.3957 30.1153 63425 2
20.2503 65.551 30.0695 54635 2
19.8065 64.1398 32.7019 63146 2
21.7976 62.3077 32.5282 63233 1
18.4967 63.7008 28.8366 53783 1
74.3138 72.6467 73.2857 25193 2
23.587 62.3232 30.5629 54632 2
25.2227 64.769 30.8367 63028 2
22.3355 64.4788 31.4821 48872 1
24.1797 63.432 33.2661 63036 2
24.1132 66.6116 32.466 55685 1
26.5732 64.8975 33.522 63024 1
26.7312 63.0999 31.9905 63043 1
27.2472 62.2617 29.6457 63227 2
29.0487 64.6914 31.5621 63176 2
27.9476 64.9726 29.2035 5799 2
30.6131 65.1836 29.1866 5309 2
30.7368 62.6773 30.015 24954 2
32.9273 61.7013 32.0869 3025 2
31.2006 62.8498 32.9479 22153 2
33.626 63.3099 30.0041 19499 2
31.8783 65.0236 31.402 2284 1
33.2999 65.7137 29.775 24853 1
33.8986 64.4843 32.5988 3948 1
35.5593 63.0051 32.0937 20458 1
36.9792 62.8874 29.5015 2288 2
39.3116 64.766 29.5829 2328 2
35.9352 65.2986 30.5516 3184 2
38.2948 63.4148 32.0989 1384 2
38.517 66.2215 31.8654 2332 1
36.3113 65.9991 33.3876 2380 2
40.3018 62.5253 30.741 2286 1
42.9344 62.3463 30.8858 1439 2
40.6128 64.8471 32.3542 2331 1
42.4008 65.0101 30.7209 572 1
42.9126 64.1991 33.008 18756 1
44.924 18.5216 49.3918 20339 1
47.8286 64.8646 29.5198 528 2
44.7213 62.8419 32.6322 1438 1
44.6857 64.2587 30.1842 1442 2
47.1754 62.8761 31.5257 1443 2
45.7185 65.1341 32.3691 19652 1
48.2901 65.8501 32.1061 19614 2
49.7378 63.531 31.9676 25036 1
52.3587 63.4602 31.1084 19617 2
50.5463 65.6735 30.0453 1446 2
49.8393 62.6522 29.4579 19660 2
51.2692 65.8346 32.9336 2388 2
54.6591 62.2553 29.5963 18770 1
54.9101 63.9239 31.1773 19665 1
56.2313 65.877 31.9938 2430 2
53.9286 65.3668 32.9603 1490 1
56.6695 63.2614 32.8806 20518 1
53.6195 65.8992 30.3743 2381 2
54.2981 62.9381 33.6663 1489 2
56.1561 65.9316 28.9984 583 2
57.0318 63.2721 30.1205 20521 2
58.9766 62.2657 33.0724 20525 2
61.1098 66.1817 30.3342 19670 2
58.6663 64.9554 31.1212 20522 1
60.0036 62.7542 30.7916 18729 2
61.2144 64.4627 33.2055 20566 2
63.4522 62.1487 29.3036 19580 2
65.0276 62.5913 32.4806 20528 2
62.6598 63.9563 31.2234 25860 1
65.1655 64.0064 30.4083 19625 1
64.0854 65.1396 33.2557 20575 2
63.2996 64.7876 29.0414 1455 1
67.8558 64.1045 30.0936 602 1
67.7673 62.9613 32.1139 20533 1
70.1891 63.5962 30.6151 20527 2
68.9769 65.2712 32.1652 25854 1
66.4562 65.7223 31.6186 21433 2
71.6738 61.8919 32.0034 21396 1
73.2472 62.8941 30.2647 19679 2
72.4626 65.422 31.4628 21693 2
71.0531 63.9737 33.2136 19639 1
73.6929 63.9294 33.182 22549 2
24.5741 75.0959 72.115 13347 2
18.8965 67.5818 30.2424 54678 1
21.2506 68.2731 29.9095 63142 1
20.9994 67.1973 32.2197 63177 2
18.2928 66.6568 32.3218 50692 1
19.9603 70.2057 31.3154 54810 2
22.251 70.7283 30.0681 63128 1
74.8234 24.7841 51.7605 6661 1
20.3111 75.0109 71.6089 29787 1
22.8168 66.5134 30.2661 63141 1
23.0632 69.1925 31.8008 54677 2
25.1797 67.7321 30.8559 63140 1
25.666 69.7868 31.9575 63124 1
26.5084 69.9209 29.2574 63125 2
27.1602 67.1048 31.8149 63144 2
29.3117 67.4592 29.7422 1383 1
28.6283 69.7429 31.4256 63139 2
30.395 67.1757 32.0994 63037 2
27.0342 67.6011 29.2768 55682 1
31.0139 69.3135 33.0114 63039 2
31.9458 67.9622 29.7327 63014 2
34.4699 67.9302 29.6682 48819 1
33.5696 70.1477 31.8656 4408 2
33.7208 67.0441 32.1672 5806 2
31.1709 70.2844 30.6077 4458 1
74.5968 34.3195 55.3301 28200 1
36.3363 68.355 31.316 2373 2
39.2239 68.7843 31.5878 2419 1
37.8791 66.8373 29.5442 4413 2
37.7203 70.1444 29.9882 3597 1
40.9097 67.195 30.4914 1482 2
43.5012 68.0298 30.4238 579 1
43.3452 66.6458 32.5194 2420 2
42.0551 69.0801 32.324 1485 1
43.6361 70.3466 30.2032 530 1
40.9978 70.5193 30.133 2374 2
40.3086 67.2604 33.5077 2335 2
45.788 66.7613 29.5336 578 2
48.0688 67.7377 30.5324 1528 1
44.4913 69.7431 32.5603 1483 2
47.7324 69.455 32.5655 3294 2
46.0661 67.5172 32.217 25034 1
45.9732 69.2786 30.5435 3300 1
47.8207 70.6403 29.8705 1535 1
74.5819 66.0845 29.4707 43679 2
50.0414 67.9975 31.579 2338 1
52.2275 67.7579 31.1647 2427 1
52.3214 69.7962 30.1934 2431 1
51.6568 69.554 33.12 24995 2
54.4692 69.9592 31.7404 1533 2
55.6214 68.0719 30.5114 2425 1
54.0399 67.7109 32.6036 2384 1
56.6987 68.4398 32.828 2439 2
57.2918 70.1833 30.1963 19667 2
74.9623 70.0552 42.8413 23541 2
60.7846 69.7957 30.1032 19718 2
60.6166 68.2307 32.3107 20569 1
58.4763 67.6609 30.1613 25882 2
58.8505 70.3609 32.1085 25855 1
58.8973 66.8596 32.6431 20474 1
63.9342 66.0692 30.8448 19624 1
62.4897 66.906 32.3853 20571 1
63.2929 70.2513 29.2939 21779 1
65.2459 68.4784 30.7895 20529 2
62.8093 69.378 31.801 21735 1
62.9169 67.7529 29.1529 18779 2
65.4937 66.2838 29.1535 2354 1
69.875 66.4777 29.6893 18736 2
70.0191 66.4778 32.8404 23502 2
67.9528 68.1255 31.2698 22589 2
69.2018 70.2978 31.1836 21740 1
69.8227 69.0919 33.5793 22639 2
66.9752 69.9392 33.5451 25787 2
70.7667 68.6955 30.9065 25816 1
73.4236 69.9766 29.7691 2592 2
74.0629 69.5605 32.3527 21748 1
72.2469 67.9387 32.289 25853 1
72.4451 67.4796 29.6484 2396 1
74.8455 72.289 62.297 28002 1
74.6902 66.8347 33.0652 22592 2
19.5558 73.4224 32.4111 54859 2
20.6893 72.6399 29.9358 54023 2
18.0306 71.2837 29.3926 63105 1
18.2739 74.0976 29.3981 63363 2
54.5495 75.0813 66.2624 13319 2
22.1432 72.1127 32.3636 62901 2
25.9611 74.1181 30.3471 63005 2
24.42 71.6717 30.3989 63118 2
25.1945 71.7277 32.7405 63010 1
24.03 74.2447 32.165 4505 2
23.0551 74.4747 29.0067 63369 2
28.5888 74.5689 31.0898 22518 2
27.041 71.8928 31.44 48908 1
28.893 72.4044 32.7705 4507 1
29.7392 72.4532 30.1854 3587 2
32.9611 18.3784 62.254 24604 2
26.9133 73.8524 33.3681 3586 2
29.775 73.7541 34.5224 3601 1
34.3026 74.0867 29.664 3590 1
34.5481 73.2867 32.1203 3599 2
33.1013 72.0972 30.198 4512 1
31.3963 72.2159 32.9499 3543 2
31.8414 74.3819 30.9852 3594 2
32.3005 74.5374 33.5348 3550 1
35.5064 70.7763 30.0771 21775 1
36.58 70.7471 32.223 3598 1
36.6887 73.0166 30.4711 3602 2
39.1796 71.7715 32.108 4520 2
36.9277 73.4496 33.358 23876 2
39.8823 73.988 33.6747 4522 1
74.6713 33.4821 43.3299 22960 2
42.9978 73.0009 29.4947 577 2
42.4208 71.924 32.0266 1532 2
40.5558 73.3923 30.4627 19699 1
45.6023 72.2713 31.1594 1487 2
48.3022 72.5927 32 2424 2
46.2632 74.2425 29.3649 37850 1
46.2667 74.4202 32.4105 21842 1
48.5945 73.0893 29.2235 633 2
49.9949 70.7266 31.0125 2426 2
50.8815 73.7697 31.1014 21736 1
52.2678 71.7802 31.431 22630 1
52.6984 74.7934 32.303 22632 1
17.5145 58.1726 59.8139 10412 2
53.8681 73.1891 30.8805 21526 1
56.3627 72.1906 31.7353 21476 2
55.8956 74.0466 30.0907 12850 1
55.2137 74.6248 32.0913 21729 1
54.643 70.9385 29.3376 25821 2
23.3311 75.2306 43.898 5410 1
38.955 58.6068 29.1774 41125 1
59.5337 72.5746 30.4536 20619 2
61.1088 73.9612 32.1872 21730 2
61.1051 71.1976 32.9669 20570 2
58.6702 72.3757 33.1488 20616 1
58.1845 74.7889 32.0243 20618 2
58.2189 74.8363 29.647 25814 1
33.7308 17.865 59.6085 6389 1
62.2882 71.9748 30.6101 25856 1
64.7267 71.3196 31.2142 20824 2
63.3874 74.3382 30.5155 22588 2
63.3478 72.8263 32.719 25778 1
67.1833 71.1919 31.4068 19669 1
66.6334 72.8106 33.2635 22638 2