ITEM: TIMESTEP    
50000     
ITEM: NUMBER OF ATOMS  
77888     
ITEM: BOX BOUNDS pp pp pp
17.607 132.393    
18.0782 131.922    
20.5647 129.435    
ITEM: ATOMS x y z id type
20.7518 19.0887 23.209 1839 2
19.1301 21.0527 21.9555 72779 2
21.4582 21.8167 23.9071 977 2
18.7978 21.2008 24.9009 20053 1
17.7319 18.7397 23.6895 1932 2
20.4235 18.8427 20.6696 20011 1
22.397 20.8501 21.0288 72830 2
23.4675 19.541 23.8083 23170 1
24.9575 20.9522 22.409 72824 1
23.9397 21.8094 24.6106 1848 1
25.6575 20.1166 24.9677 22628 1
25.1999 18.2438 22.8197 22740 1
26.8862 22.2565 23.5602 1846 2
29.7535 20.99 23.8667 20062 2
30.0322 21.5339 21.1688 2719 1
27.6452 19.759 21.7248 22548 2
27.6079 18.36 24.6805 1845 2
32.2355 19.908 21.8918 24988 2
32.5723 21.3036 24.3835 43709 1
35.0186 20.2062 23.1058 1851 2
32.8191 18.489 24.8344 23637 2
37.5111 20.8452 21.2481 22537 2
36.8961 21.9752 24.4615 1899 2
39.1965 18.8226 21.203 1904 1
37.1424 18.1265 23.1647 22536 2
39.6679 20.5038 23.3663 1854 2
42.0686 22.0155 22.0851 40934 2
42.5651 19.3599 24.1131 23128 2
41.8665 22.2395 24.6513 3665 1
41.8778 18.5135 20.88 23153 2
44.4286 20.0941 21.9563 1099 2
47.2303 20.7417 22.1006 40834 2
45.8946 19.3084 24.6073 22576 2
47.6026 21.815 24.326 1908 1
50.1052 21.1095 21.3691 40893 1
48.9078 18.9788 23.6225 22529 2
52.7063 20.3368 21.7818 38365 2
51.7993 18.3981 23.6732 22574 1
50.7636 21.4304 23.9633 1110 2
50.3052 18.1012 20.9402 38521 2
55.3838 21.4542 23.5924 23176 2
56.9527 19.2676 23.6054 13500 1
55.5736 18.1982 21.6205 21944 1
54.3042 18.7879 23.7111 12513 1
60.4914 21.4283 21.7352 31298 2
59.6564 18.7812 23.3782 19184 2
58.8267 21.5042 24.297 31285 2
57.7952 20.1056 21.2169 38509 2
60.1737 18.5066 20.7454 31004 1
64.9176 18.6412 24.1546 30999 2
64.414 21.0203 22.2628 21892 2
62.236 19.1464 21.9071 31021 1
62.0959 20.1891 24.5226 38322 2
64.4405 21.4371 24.8545 12897 1
66.7215 20.5838 24.0409 20998 1
67.4532 19.9344 21.3466 31023 2
69.2818 21.5163 23.7824 19245 2
67.1861 22.3294 22.1025 31293 1
69.5752 22.2839 20.5865 31019 2
70.1431 18.5639 24.2709 38366 1
67.6603 18.33 23.6636 30809 1
74.45 19.5146 21.4526 31289 2
71.0321 20.2889 22.3907 30996 2
72.8937 18.7249 23.5472 21403 2
73.8489 21.7996 23.6029 12413 2
20.9282 24.4848 23.2025 25062 1
19.668 25.7047 21.6505 970 1
18.2172 23.6159 23.0903 1928 2
19.7036 26.3757 24.7583 1883 2
20.5721 23.4004 20.6229 19183 2
25.1504 22.5037 20.6282 926 1
22.0417 25.8128 21.5388 52493 1
23.0559 26.217 23.6725 1888 1
23.573 23.7132 22.4277 25024 2
24.8061 26.5976 21.644 25061 2
25.5913 26.6949 24.8969 1025 2
26.4138 24.9554 23.1912 1945 1
24.8904 24.0698 24.9687 1884 1
27.7906 22.4925 20.6521 978 1
29.5331 23.5349 22.4967 1895 1
30.5865 26.0943 22.5656 40920 2
28.7078 25.0287 24.6527 1944 2
27.8381 25.244 21.0867 1943 2
31.0672 23.3475 24.5181 25026 1
32.2093 25.3751 24.7203 25060 1
32.2726 23.0025 22.1512 989 2
33.7705 25.8782 22.5577 1035 2
34.4619 23.7257 24.7707 25027 2
39.5053 22.6079 21.3362 2790 1
35.3427 22.9583 22.0324 40928 2
36.9064 25.3219 23.4432 2729 2
39.5435 26.1053 22.7826 2836 1
39.4373 23.5662 23.8611 3770 2
35.6818 26.0885 20.7871 40922 1
38.0517 24.5899 20.6017 43667 2
40.854 24.59 21.7661 1956 1
42.2193 24.4585 24.0125 2782 1
43.2504 24.633 21.9893 41801 1
45.0352 22.6417 23.5622 43705 2
45.9921 25.4021 21.9935 40939 2
47.0267 24.2727 24.2581 1153 1
44.5538 25.6483 24.8851 2837 2
44.2747 22.6467 20.7831 39923 1
49.0253 23.6249 22.5175 40989 2
51.5418 24.9554 23.9046 2020 2
51.8961 23.2839 21.2046 19180 2
52.4293 26.4849 21.153 1165 2
49.0688 26.4472 23.9276 40935 2
53.0467 22.5317 23.6601 23642 1
56.9788 23.5107 24.8609 23172 1
57.0911 25.869 23.591 18330 2
54.7193 24.138 24.4517 40030 1
54.6814 24.139 21.7528 40025 2
54.1722 26.7216 23.7955 20144 2
57.3036 25.0862 20.7564 18326 1
57.5173 23.0673 22.1146 38629 2
59.4611 24.1827 24.1082 20148 1
59.6899 26.485 23.4166 246 1
60.1623 24.4439 21.4445 199 2
62.4507 26.0016 22.4729 19229 2
62.3177 23.1238 23.2276 19285 2
64.9993 25.3833 23.5469 20106 2
65.0151 23.6511 21.9152 18327 1
63.0808 23.0242 20.6251 30803 1
66.7741 23.2546 24.4414 31002 2
69.506 24.3968 23.1781 1065 2
67.5489 26.1308 23.6353 19241 1
67.3747 24.8794 21.1176 31294 2
71.7839 23.3275 21.9914 12457 1
71.7354 25.9448 22.8647 30290 1
73.6505 24.5253 23.1434 43162 1
71.6252 23.115 25.0685 22672 2
74.6458 26.6566 24.325 1076 2
73.876 26.3683 20.9551 30993 2
20.9595 28.0061 23.0659 1933 2
18.3141 29.8026 23.1378 63536 2
20.1205 30.2662 21.3353 72807 1
22.3584 31.0524 22.5493 1071 2
23.7303 28.6242 23.3215 63545 1
25.691 29.9699 21.9465 1023 2
25.8536 29.3727 24.5228 40916 1
22.6392 28.8417 20.6277 975 2
27.6849 27.6921 23.0331 39954 2
30.5661 29.053 22.7616 983 1
28.5118 30.5081 23.2326 40965 1
28.6694 29.5061 21.1342 19240 1
29.724 27.5694 25.0379 1949 1
32.5707 28.18 24.2948 41845 2
33.1283 29.4092 21.4681 41885 2
33.8092 30.5265 23.9527 1033 1
35.6738 28.341 23.2448 40926 2
37.345 30.4682 24.3155 2010 1
37.7502 29.6648 21.9769 2000 1
38.3011 27.9841 23.6341 1083 1
37.95 27.2259 21.2205 2779 1
42.8039 26.9702 20.804 1897 1
42.2268 27.0792 23.4219 41842 2
40.4091 28.7211 21.605 1907 2
43.3314 30.2587 23.6868 43703 2
40.2674 29.8539 24.4636 40975 2
44.7036 27.7408 22.5869 40985 1
45.8887 30.2348 21.8596 41032 2
47.2906 27.7922 22.2639 41894 1
46.4257 30.7527 24.7195 2942 1
48.2739 29.7614 23.3316 1954 1
45.9687 28.2057 24.8236 41849 2
50.1787 28.3106 21.9781 42717 1
50.6108 29.992 23.5887 42715 1
52.4675 28.7554 22.866 40996 1
52.2423 30.7142 21.2001 1163 2
49.2156 30.7298 21.0013 41898 2
51.5495 27.9121 24.8999 2026 1
55.9825 27.2052 20.8759 19382 2
54.8804 29.1343 22.5299 1105 1
56.0558 31.0239 21.1389 248 2
53.6294 30.9554 24.0568 1164 2
56.11 28.6799 24.9499 1973 2
59.0614 26.9556 21.0321 19227 1
57.6007 28.7451 22.9573 19231 2
59.6468 30.2819 24.7837 200 2
60.8053 29.0424 22.1601 2792 2
58.9766 30.9135 21.9867 1109 1
61.4323 27.9207 24.4062 19243 1
63.9222 28.6114 22.0757 19242 2
62.9756 30.3603 24.7098 20214 2
66.2188 27.298 22.0347 18337 1
68.8975 27.6315 21.5436 30998 2
69.9719 27.5354 24.3398 19186 2
66.8741 28.7342 24.1102 12515 2
69.3137 29.8332 22.8355 43818 1
66.664 30.0364 21.1971 30833 2
71.2121 30.3478 24.5333 19294 1
74.1254 30.4332 24.2058 19300 2
74.6924 28.6924 22.3211 43804 1
71.8856 28.6717 21.9606 18339 2
73.6672 30.8944 21.6986 19297 1
72.5931 28.3956 24.926 18336 1
19.1889 32.7625 22.8882 1017 2
21.86 34.6335 22.0487 1060 2
18.0773 35.1833 22.1016 1121 1
17.7363 35.0263 24.6854 2808 1
21.025 32.5667 20.814 74584 1
22.1502 33.1801 24.4723 1980 1
24.6169 33.1786 22.7002 63681 2
24.9749 35.5554 21.7987 43702 1
26.6481 32.1331 24.5557 20152 2
27.1484 34.19 22.3393 1070 1
28.9567 32.7917 23.2645 1989 1
29.4515 34.0957 20.9798 1031 2
27.209 31.8179 20.9086 40917 2
31.1895 33.5543 24.6203 2916 1
31.7207 35.2589 22.1303 1029 2
31.5488 31.8724 22.5222 1940 2
33.9733 33.816 23.6526 24974 2
33.4881 32.8498 20.8473 984 1
34.0147 35.2526 21.0129 41936 1
35.6451 31.6499 22.2891 41893 2
38.6408 32.3677 22.6927 1199 2
36.3658 34.9259 22.0447 41937 2
38.9973 35.3299 21.2895 19202 1
39.068 34.8328 24.3509 20283 2
36.5298 33.3188 24.6164 1080 1
41.1068 31.4166 22.3059 42701 1
40.7956 34.1371 22.4212 2002 1
43.0978 32.921 21.3225 41848 2
41.7117 32.8927 24.5453 2004 2
46.317 35.2704 21.8254 2067 2
47.7139 32.5948 22.7797 237 2
44.785 32.7384 23.6629 43700 2
48.0558 35.5487 23.9563 236 1
49.4027 34.5336 22.1913 41035 1
51.0242 32.8944 23.5768 2022 2
50.9669 33.3355 20.8666 291 1
48.9332 31.6682 25.0988 2023 1
53.3551 35.3126 23.6289 1208 1
57.0701 31.9159 23.6576 2077 2
55.1165 33.7131 24.6895 249 1
56.4399 34.5692 22.4358 19334 1
54.0005 33.2313 22.1761 20251 2
61.4035 32.2203 22.5791 1112 2
59.4233 33.3066 24.4328 19233 1
60.6698 34.9289 23.0188 43165 1
58.5532 33.6354 21.269 241 2
64.2155 31.2886 21.5487 18380 1
65.611 31.7295 23.9412 19289 2
63.9973 34.217 21.933 19232 2
63.3715 33.2231 24.525 19341 1
65.2668 34.6635 24.6374 19339 1
66.3958 35.3991 22.5559 20215 1
66.5081 32.9596 21.5537 19288 1
68.1667 31.8133 22.667 20162 1
68.9756 34.5253 21.9524 19349 2
70.3822 34.2542 24.604 19295 2
67.4724 33.7513 24.2016 19293 1
71.0423 31.9617 22.309 19246 2
71.4969 35.0428 22.1386 25899 1
73.6436 33.7665 21.3033 43988 2
73.1593 35.0422 24.5955 19350 2
72.5272 32.4562 24.8247 19296 1
20.0679 35.5932 23.8174 63543 1
17.8765 38.2897 21.3883 63669 1
19.945 36.8253 21.7327 63542 1
18.4234 37.7222 23.8413 63539 2
21.7604 37.9746 23.7188 1979 2
26.2866 35.6344 24.3384 1075 2
23.7368 35.7992 23.9795 1069 1
22.8174 37.1814 20.9037 1988 2
25.0128 38.3584 22.5577 2036 2
22.7784 39.7493 21.4207 2045 1
29.3076 35.5942 23.8467 1074 2
27.7792 36.5366 21.2441 41015 2
29.8545 38.5227 21.899 1028 2
27.8162 38.5582 23.852 1122 2
34.2774 37.2007 22.9649 2829 2
31.5195 37.5945 23.675 1079 1
32.4491 39.8385 23.0232 41941 1
35.2556 39.8136 22.5481 1998 2
37.8276 37.6826 22.7489 41068 2
36.2496 36.0503 25.0642 1995 2
41.9148 35.6496 24.7706 2944 1
43.4097 35.6537 22.6804 2990 2
40.3095 39.6763 23.0851 41984 2
40.5652 36.8311 22.7476 40988 1
42.7148 38.6142 21.3286 1204 2
42.6016 37.9681 24.1264 2066 1
44.8751 38.2811 23.5948 41031 1
47.856 38.1191 23.4582 330 2
45.5916 35.8317 24.8739 2995 2
46.0679 38.4806 21.2062 286 2
51.925 35.7325 21.2956 1155 2
50.6415 36.5305 23.9021 1162 2
50.1383 38.7793 22.3309 290 1
52.8346 38.388 22.591 18473 2
50.468 39.6856 24.6972 2074 2
48.9189 36.8426 20.7836 40108 2
55.8175 36.1561 24.2428 19276 1
54.8983 36.6898 21.4551 20297 2
55.52 38.4622 23.7156 388 1
57.9333 38.9934 22.5687 18430 2
59.7533 36.6469 21.3743 1119 1
58.3169 36.0903 23.4901 2121 2
61.1696 38.3166 23.6398 19286 2
59.1106 38.0839 25.0197 18376 1
62.7417 35.5973 24.2093 20213 1
62.2917 36.4635 21.7233 19236 1
64.5121 37.2743 23.5423 19281 2
65.5216 39.6305 21.5528 18433 2
62.9579 38.7133 21.6869 44031 1
68.1357 36.3735 24.7995 19291 2
67.013 38.4066 23.6239 163 1
68.7397 39.5798 21.8312 18439 2
69.2502 39.1197 24.6015 19340 1
67.857 36.9702 21.5906 19290 1
70.5761 37.3523 23.0552 18437 2
73.5109 38.0601 23.8496 19352 2
71.7699 39.1724 21.1272 18443 1
72.7912 36.8685 21.1348 18386 1
71.1358 39.9417 23.1389 20353 1
74.4377 38.4251 20.81 18489 1
19.9252 40.2543 22.8707 63537 2
18.7147 42.671 22.9473 63648 1
21.1601 43.5947 23.6787 63528 2
21.5784 41.1993 24.8388 63529 1
20.0078 42.1781 20.8704 63678 1
23.65 40.1404 24.0538 2039 1
22.5076 41.8879 22.5064 21093 1
25.154 41.4178 21.4136 41066 2
24.0668 43.9303 21.9295 63650 2
26.2612 40.904 24.3106 2037 2
26.3628 43.2753 23.0087 2969 1
24.0508 42.8209 25.0893 63091 2
30.1649 40.3516 24.2033 25055 2
28.1635 41.7693 22.1705 43701 2
29.7389 43.6763 20.6242 42710 1
31.0494 41.3009 21.0579 41883 2
31.1188 43.4578 23.3495 2090 2
33.8381 42.6027 22.6012 2051 2
32.6753 41.691 25.0326 1994 1
32.2523 44.0219 20.6651 24950 1
37.9867 40.1505 20.6477 41072 2
37.7085 40.8269 23.3667 1202 1
35.4967 41.4691 25.0017 2053 2
36.7223 43.842 23.225 41939 2
39.5042 42.6235 21.7638 3133 2
36.2086 42.0803 20.9451 2056 1
38.5235 42.7572 24.8948 41078 1
43.2132 40.509 23.56 25047 1
42.2437 41.6524 21.8881 1200 1
44.0829 43.3795 23.1589 1251 2
41.1073 42.2454 24.511 1198 2
44.5612 40.8501 21.4792 25049 1
46.1251 40.785 23.6909 2119 2
46.557 42.9213 21.3504 1254 2
47.2686 43.8173 24.2518 1253 2
48.4794 40.4122 21.0507 41038 2
48.6641 41.576 23.6427 2113 1
49.4287 43.7886 21.992 340 2
51.8034 41.64 22.6671 289 2
53.7648 42.9732 21.3969 1307 1
53.4615 40.2604 24.2559 20299 1
55.1591 40.4618 21.8641 18427 2
54.3399 42.4898 23.7507 39218 1
56.4067 43.7457 20.721 1350 2
57.0966 42.247 23.2721 19337 2
60.129 41.2172 22.9224 20206 2
61.0439 43.0595 20.8194 18479 1
60.5168 43.6777 24.2684 20298 2
58.987 43.7188 21.9709 1255 1
58.3088 40.3352 24.9065 18378 1
62.6151 41.1009 21.4144 18379 1
63.6821 40.701 24.032 19338 2
62.8131 42.973 23.0712 18435 1
65.2416 42.4536 22.0987 19384 1
65.5803 43.7329 24.4045 21284 2
66.9531 41.1996 23.7423 20305 2
69.9526 41.8432 24.0768 19389 1
68.4187 42.9338 22.5193 19396 1
68.6721 44.3071 24.7702 20308 2
71.0068 41.8482 21.0826 19401 2
74.1562 40.554 22.5589 20361 2
72.2167 42.1206 23.3639 2141 1
73.5807 43.6644 21.5083 18488 2
74.8437 42.9719 24.4785 19447 2
18.8981 45.3709 22.6912 63282 2
19.7051 48.4617 22.4381 63274 2
20.0984 47.0499 24.6023 48662 1
21.2248 44.6595 20.7255 48570 2
17.8139 47.4346 24.9008 63280 1
22.2384 46.5963 22.8221 53468 2
24.2067 45.3805 24.1273 2088 1
24.5352 48.0921 23.9344 63527 1
26.0363 46.4121 22.469 41064 2
28.4796 44.5854 23.0287 2049 1
30.1779 46.2257 21.7084 41946 2
28.2211 46.6603 24.2816 1131 1
30.5083 45.6911 24.5319 2046 1
33.1769 45.6358 22.6703 2157 2
32.0986 48.2801 21.4803 41115 1
31.8195 47.7553 24.069 2922 1
35.1288 46.0186 24.7328 3952 1
34.5086 47.5735 21.0473 2092 1
38.6826 46.1454 21.688 41124 2
35.9503 46.2222 22.351 41990 1
37.7861 46.6511 24.6569 2159 2
37.0674 48.4541 22.187 2155 1
41.953 44.3585 21.1482 1249 1
39.8264 44.671 23.7078 2156 1
41.6402 46.9874 23.214 1293 2
44.0917 45.9438 23.7325 2162 1
41.1161 46.382 20.7255 19416 1
44.6186 47.9982 22 2169 2
45.9446 45.4318 22.5136 381 1
46.2864 47.0782 24.3044 21219 1
47.6837 48.6919 21.921 41079 2
48.2447 48.4344 24.6055 2214 1
48.4582 45.9739 23.1036 385 1
44.3211 45.2783 20.6235 1257 1
51.6591 44.5514 23.8681 25040 2
50.4526 46.5597 21.0294 1305 2
52.8059 46.5121 22.1162 1345 1
50.6012 47.8655 23.8645 2213 2
52.0011 44.4566 20.7052 2120 1
54.7427 45.0602 23.235 1306 2
55.2796 47.4421 21.3311 19426 2
56.0266 47.9182 24.2867 21280 2
53.4574 47.1088 24.6821 1262 1
57.8306 45.2382 24.2925 1303 2
61.2766 45.3875 21.738 20338 2
59.9857 47.4782 23.7194 2172 2
58.1194 46.5368 21.374 20346 2
63.0406 45.3638 24.0729 20304 1
64.1323 45.0873 21.4555 19386 2
65.2099 46.2963 23.5147 25875 1
63.0085 48.175 23.0264 18534 2
65.6338 48.4238 21.7205 20344 2
67.0989 45.0713 21.9141 21192 2
67.9038 47.2575 23.9048 19439 2
69.3868 46.8059 21.0774 18476 2
70.6583 44.5243 22.8765 19436 2
70.9021 48.3601 23.3372 2268 2
73.3636 45.9899 23.7144 20313 2
71.9846 46.2229 21.2968 18542 1
74.7264 47.1935 21.4338 20354 2
18.6539 51.3579 22.899 54461 1
21.3371 50.6938 22.7399 63632 2
19.6794 52.0583 20.607 63484 1
23.6411 49.1475 21.6263 48669 2
24.98 51.6093 21.6779 63235 1
24.5659 51.0965 24.1656 63483 2
29.4991 48.923 23.0551 24951 2
26.6019 49.1725 21.8111 2085 2
30.3415 50.5171 21.2382 2040 1
27.9583 51.6884 22.7058 2089 2
26.9522 49.008 24.8385 63281 2
34.4569 48.8093 23.4466 2095 2
31.1102 52.9013 22.9115 40239 2
31.9491 50.3107 23.6398 40237 1
34.093 51.6556 23.5029 41120 1
33.128 51.1066 20.9791 2048 2
39.386 49.4427 23.2368 1294 2
36.7572 51.5386 23.3923 378 2
36.8184 49.1766 24.8265 63642 1
38.5676 51.894 20.7331 18505 2
39.769 52.5313 23.5375 1339 2
41.4379 52.1299 20.9498 431 2
41.5919 49.156 20.8174 2207 2
42.4776 49.9428 23.7728 2200 2
43.0186 53.0959 23.7246 1388 2
45.523 52.5905 23.3364 1386 1
44.4334 51.1007 21.2548 383 2
45.5829 49.7901 24.3093 1295 2
47.115 51.1211 22.4752 2240 1
49.0689 50.4356 23.7832 394 1
49.4405 52.3244 21.3745 3092 2
50.6569 49.9461 22.0452 1351 1
52.1013 51.8489 23.3586 25001 2
52.2509 51.3233 20.5716 436 1
53.2578 49.2798 22.6993 19428 2
55.7997 50.6305 22.5055 1268 2
54.0309 52.6451 21.5656 1352 1
54.6508 52.9049 23.9937 19469 1
57.6292 51.0503 24.4307 1310 1
58.2685 49.1798 22.9642 19470 1
60.5363 49.1744 20.9905 19481 2
58.4017 51.6271 21.8489 3150 1
60.414 50.5235 23.7206 20342 2
59.0426 53.0898 23.9968 19379 1
62.969 51.3721 22.2388 19483 2
65.0246 50.6033 23.4408 20397 1
65.3453 51.3273 20.7472 18526 1
68.6891 49.2228 21.8041 25893 1
67.2176 50.0098 23.6428 25042 1
67.8066 52.2091 21.8392 19482 2
70.463 50.6833 21.3895 20352 1
69.6055 51.2531 24.089 19488 2
73.3939 48.876 23.49 25871 1
72.3931 48.9064 20.657 19445 2
72.5104 51.3771 23.1338 19532 2
74.7461 50.0418 22.0983 19492 1
19.6938 53.7823 23.0222 63500 2
21.8717 55.8071 24.1388 48680 2
18.2714 55.8219 21.5325 63180 2
21.7518 57.1477 21.0675 63468 2
20.8089 54.4511 20.6196 48674 2
22.7804 53.4644 23.0869 63481 2
24.2716 55.2234 21.3836 63634 2
25.9547 53.7582 23.3404 63188 2
24.5953 56.2262 24.1596 63485 1
27.3961 56.704 22.6069 63479 2
28.5639 54.2828 21.7462 3022 1
28.982 54.3869 24.4368 2195 2
30.711 56.0713 21.9091 25023 2
33.4889 53.9983 22.7332 41977 1
34.1772 56.3729 22.1142 428 2
31.9115 55.5386 24.9397 2982 2
34.9068 54.1547 24.9474 41170 2
34.0358 57.4414 24.8189 24941 1
35.6605 53.5992 21.2202 41126 2
37.3227 54.3074 23.4183 477 1
36.4488 56.8619 24.1808 376 2
37.2717 56.5816 21.328 1338 2
38.832 54.5763 21.621 25067 1
39.5618 55.933 24.0907 3191 2
43.5519 54.3076 20.7607 435 2
41.1975 54.6594 22.1109 19545 1
42.7857 56.3286 22.8401 481 1
48.149 53.2523 24.2869 1297 2
46.5796 53.3271 21.3218 438 1
45.5882 55.2088 22.9262 1390 2
48.6259 55.3161 21.8372 1348 2
48.9779 56.2928 24.9846 20463 2
51.7269 54.3225 20.8875 1392 2
50.6095 54.3995 23.5273 19565 1
51.258 56.8135 22.6762 491 1
56.7295 53.1518 22.8372 1267 1
53.0743 54.7384 23.0768 1399 1
55.258 55.1498 21.3198 20435 2
54.789 55.6235 24.5683 19657 1
53.949 57.4206 22.6871 1398 2
60.6847 53.2972 21.785 20390 2
57.7528 55.6098 23.8479 25887 2
58.1057 54.391 21.1771 19517 1
59.8466 56.1349 21.4725 18630 1
60.5089 55.4387 23.6746 25865 1
57.3823 57.1996 21.1882 1401 2
62.0565 53.1331 24.6095 19476 2
65.3769 53.3306 23.3465 19486 2
63.1149 55.3527 22.8779 19570 2
65.5577 55.715 21.1603 19581 2
66.2607 56.2393 23.8663 19585 1
68.4942 54.4618 23.8568 19524 2
68.176 54.636 20.8887 19523 1
68.3892 57.3048 21.863 19586 2
70.7649 53.6506 21.5008 19489 2
71.1377 53.8848 24.3002 20402 1
72.9494 56.9801 21.9111 19533 1
70.8628 56.377 23.6794 20444 2
73.6516 54.5188 22.616 19530 2
70.9508 56.2532 20.6474 19584 1
74.7609 56.4837 23.979 19534 1
19.1657 57.5705 23.3016 63187 2
19.6748 61.1901 21.9977 53700 2
21.5234 59.1698 22.8134 63438 1
19.6518 59.7641 24.4324 63040 1
17.8782 58.9631 20.6024 63424 2
24.3619 58.3081 22.6058 63433 2
23.0704 61.2813 22.0264 63600 2
24.4359 60.9556 24.5016 54632 2
29.4107 57.8549 24.8174 63272 2
30.5754 61.3566 23.8358 24954 2
29.3971 58.7963 22.2328 53557 1
27.2703 59.7159 23.4112 63227 2
28.3401 61.6971 21.6995 5799 2
32.0822 58.4703 23.0798 1382 2
34.8797 59.4046 22.7938 19499 2
31.1813 60.7289 20.9953 63458 2
33.5912 61.1921 24.9753 3025 2
38.2318 59.167 23.3793 1385 2
36.5237 60.9938 24.5066 20458 1
39.8954 60.2485 20.6392 476 2
40.4129 57.622 21.9943 429 2
42.006 58.2232 24.4196 2333 1
42.3162 59.427 22.1615 19607 1
40.579 60.5865 23.6726 24937 2
43.6867 60.4758 24.5421 1441 2
46.6246 57.8895 21.0234 18712 2
46.7796 57.4938 23.9167 1393 1
44.5837 59.9042 21.368 1391 1
44.583 58.1994 23.2042 1387 1
46.6581 60.408 23.2548 1445 2
49.1065 58.4118 22.7429 1447 2
48.8394 60.6613 21.3363 19616 1
51.8003 59.3478 24.095 19569 2
49.3322 60.8441 23.9044 1444 1
51.741 59.2417 21.0339 534 2
51.0869 61.8499 22.0681 19660 2
54.71 59.6197 21.1007 20473 2
53.7254 61.0153 23.0953 2342 1
56.0815 61.3161 23.1533 25862 1
56.4243 58.4226 23.6479 448 2
59.5067 58.1475 23.6621 444 2
57.8498 60.2173 21.5408 19618 2
59.9651 60.9753 22.8733 20476 1
60.7248 59.1775 20.628 19575 2
61.8717 57.5379 22.5239 19572 1
64.1841 57.6929 23.4981 19520 1
62.662 60.1016 23.2864 19580 2
65.983 59.3098 22.6971 1420 2
64.2126 61.55 21.7368 1455 1
65.1192 61.8271 23.9658 19625 1
63.9477 58.3723 20.856 19574 2
68.4624 57.7144 24.8376 19626 2
68.7345 60.4889 22.6448 20487 2
66.9187 60.3153 25.0492 20483 1
70.7697 59.0349 24.6057 20488 1
73.2141 61.0351 20.6914 18692 1
71.3542 59.1499 21.7959 20485 2
74.3471 59.1536 22.5473 19593 2
71.8192 60.9515 23.5703 21396 1
74.4274 61.0627 24.932 20497 2
17.8162 61.9661 24.3307 55544 2
21.2831 62.0147 24.5173 63425 2
21.3535 63.8277 21.5733 54635 2
19.312 65.9719 21.267 50596 1
18.7189 63.4212 20.9077 53783 1
21.5123 65.2193 24.5993 63177 2
19.3153 64.0322 23.2437 55588 1
25.9788 62.4108 22.832 63474 1
23.4191 63.4857 23.5372 63141 1
24.4155 64.004 21.2231 63411 2
24.2036 65.9006 23.0653 63140 1
27.1983 64.8181 22.5629 63144 2
38.5651 62.2283 23.9316 2286 1
37.0075 62.016 21.7461 2288 2
38.0826 64.8755 22.7854 2328 2
39.6184 62.8005 21.9262 526 1
36.0771 63.5923 24.6408 24997 2
42.9685 62.312 21.9009 1440 2
41.1333 63.5228 24.4845 1439 2
42.8562 64.9904 22.8081 572 1
40.568 65.1912 21.1175 19546 2
45.5927 62.4124 21.3983 525 1
44.955 63.5002 23.7693 1442 2
48.2029 63.2237 22.03 1446 2
47.0428 65.9734 23.5665 578 2
49.755 65.2073 21.4215 530 1
50.5119 62.7965 24.4394 25036 1
49.6177 64.974 23.9487 2338 1
52.2336 64.6116 22.8601 2381 2
55.8076 62.3711 21.0042 18770 1
54.9394 63.4415 22.9494 19665 1
56.5075 65.7502 23.371 2430 2
56.5287 63.0751 24.8249 20518 1
54.5056 64.7557 25.0228 1490 1
54.8581 65.0404 20.6592 583 2
61.4286 62.2725 21.0771 18729 2
58.2555 63.1664 22.217 20521 2
60.6005 65.0815 22.8365 19670 2
58.6213 64.3803 24.7301 20522 1
60.8786 62.6519 24.7081 20525 2
63.0979 63.3794 23.3244 25860 1
63.4163 65.1069 21.4912 18779 2
65.3887 64.2718 23.4167 2354 1
62.702 65.9871 24.0931 19624 1
66.4335 65.4255 21.3582 19629 1
67.4504 62.705 24.7711 20533 1
66.9947 62.5797 22.1636 546 2
68.1596 65.6741 23.3198 18736 2
69.8091 63.2304 23.3153 20527 2
70.3158 65.117 21.3415 1461 1
73.2485 65.9342 20.6125 43679 2
70.8536 62.0692 21.1413 19632 1
73.0134 63.121 22.5738 19679 2
74.4283 65.2926 23.0477 22590 1
71.742 65.9408 23.5162 21693 2
19.6134 66.5169 23.5523 54678 1
18.3538 69.1986 24.3566 63016 1
19.5 68.5748 22.1996 63142 1
21.9958 69.5045 21.8624 63128 1
21.413 68.476 24.3319 54677 2
22.1367 66.8623 21.4939 48693 2
23.9264 68.3557 22.959 55682 1
25.4805 67.1823 20.9915 54813 2
26.0623 69.5106 22.6357 50703 1
26.4446 67.2003 24.2136 63139 2
28.0401 67.8126 22.1669 1383 1
30.0383 68.6079 24.2495 4461 2
27.6853 69.6171 24.2504 48819 1
40.3745 66.7225 24.2515 1482 2
42.4021 67.6568 22.2673 18753 2
43.7481 66.299 24.9525 2420 2
44.836 66.3505 22.274 579 1
48.1032 67.2751 21.0835 1487 2
44.9611 69.0548 23.6732 1483 2
47.6685 68.4549 23.6896 1528 1
46.867 69.6991 21.7801 19699 1
52.5536 68.5951 21.6988 632 2
50.4748 67.3603 22.8435 1488 2
52.3062 70.4769 23.4006 1534 1
49.7954 70.0293 24.3311 2426 2
49.4746 70.2305 21.3532 1531 2
54.8496 69.2572 23.8934 1533 2
53.8181 66.645 23.2398 2427 1
55.3524 67.9259 21.0835 19710 2
58.4347 66.399 21.0398 25882 2
57.586 68.4898 22.4733 2425 1
60.6588 68.2921 22.4265 19718 2
59.0042 66.8362 24.1636 20569 1
58.7007 70.4633 23.305 25855 1
63.3397 67.8414 21.0695 25856 1
65.3327 70.2037 22.9334 20824 2
65.1359 66.8821 23.3492 20529 2
63.0868 68.5742 23.5475 20571 1
66.1537 68.1954 20.8034 21739 2
62.5294 70.3543 20.9885 19672 2
67.8183 68.4133 22.5953 25881 1
68.7954 66.881 21.0033 21691 1
69.4921 68.0685 24.2073 25816 1
70.2017 69.3767 22.4576 18741 1
71.165 67.5137 21.0878 2396 1
73.3524 68.6584 22.7595 2592 2
71.9062 70.3478 20.9501 21785 1
71.7521 68.1746 24.8891 25853 1
20.4683 71.2964 23.5824 54810 2
21.553 73.5066 21.7323 63116 2
19.4606 74.2848 24.0556 54859 2
18.6252 72.5582 22.0265 63105 1
23.6278 70.7464 23.324 63124 1
23.1414 72.6685 24.5354 63010 1
25.3558 71.1651 21.0571 3538 1
26.0995 71.7543 24.478 63125 2
24.7838 73.5221 22.2354 22525 2
22.9761 71.5102 20.6652 54814 1
24.9474 74.4801 24.9164 48908 1
28.3705 71.7564 22.254 3587 2
27.3427 74.0529 23.3159 24854 1
29.8716 73.3927 23.958 4507 1
29.5415 74.9023 22.3851 749 1
31.1398 71.3731 23.9202 4458 1
31.003 73.0819 21.7752 63178 1
33.0519 73.7098 23.5677 24933 2
46.9095 70.9867 24.1173 3300 1
51.5471 73.177 23.8584 1537 2
48.6347 72.433 24.5018 32221 1
52.9012 72.0991 21.2459 19711 2
54.2095 71.9053 23.6872 2431 1
56.2228 70.89 21.8168 25821 2
55.305 74.0286 22.3232 22631 2
57.0946 74.3869 24.4301 21729 1
56.7362 71.7461 24.7364 21476 2
59.5539 74.1043 20.7454 25814 1
59.4959 71.1368 20.7439 19667 2
57.4708 73.2336 20.7427 2432 1
59.3711 73.2442 23.3501 20618 2
61.4039 71.0261 23.784 20619 2
61.9453 73.5766 21.6899 21788 2
64.5287 73.7763 20.9732 20827 1
64.3213 72.9965 23.7155 22588 2
61.9681 74.9889 23.9446 21776 2
67.7033 70.6696 21.443 21740 1
68.1165 70.7882 24.0259 21737 2
66.8905 73.1324 22.1146 21781 2
70.2103 72.158 21.6044 22688 2
69.7614 72.7416 24.4466 25817 1
73.4426 72.3033 22.3662 20834 2
71.6692 70.7185 24.5791 22642 2
74.638 74.2731 20.9024 20881 1
72.0583 74.0388 24.9007 12832 2
74.7044 72.1693 24.8927 21791 2
71.9171 74.9184 21.4384 20880 2
17.9242 19.5388 28.5917 59349 2
20.0437 19.1989 26.3222 1881 2
19.5633 22.1672 27.8156 20051 2
21.4072 20.0431 29.0344 2716 2
21.8624 21.8367 26.5457 25064 1
23.1939 19.5709 26.4941 20009 2
24.8067 21.9396 27.0006 24990 2
26.0009 18.812 27.5558 784 2
23.9225 18.5563 29.3174 2718 1
27.0527 21.2419 28.9411 2772 1
27.83 20.7484 26.3973 2717 2
28.9741 19.045 28.4953 1847 2
29.6752 21.797 28.3298 2776 1
33.845 18.4356 27.5534 22538 2
31.3601 20.3029 26.6734 1891 2
33.7515 21.0774 28.1616 987 1
34.4625 21.3701 25.8268 2726 1
36.3972 18.0851 27.8535 3659 1
35.6823 19.2396 25.4534 20120 1
38.2941 19.001 25.8537 21910 2
38.916 21.6398 26.1015 3657 1
36.6522 21.1663 27.5797 1900 2
38.7427 19.1433 28.9877 3663 2
39.6525 22.1027 28.8239 3662 2
41.1974 20.4267 26.5787 22582 2
43.0703 22.1457 28.0933 2784 2
43.8602 18.3585 26.7702 22714 2
43.9558 21.0528 25.6849 21871 1
45.5748 20.4144 27.5126 12875 1
48.1102 20.097 26.4618 23264 2
50.746 18.3234 26.1947 3670 2
48.7377 22.0542 28.5836 2736 2
50.6666 20.9507 26.782 21895 1
52.2358 21.6264 28.8613 22570 2
50.0734 19.543 28.9418 22528 1
52.5291 18.9765 28.3726 21898 1
53.1481 20.2627 25.7143 2785 2
55.8433 19.9144 25.662 23127 1
55.1984 19.7465 28.5616 22564 2
57.2582 22.1372 28.9629 12459 1
57.7994 20.7307 26.9863 23632 1
57.9584 18.8612 29.2166 21893 2
59.9734 19.6773 26.0668 20993 1
60.1042 21.3206 28.2469 20141 2
61.1336 18.4268 28.4404 22527 2
62.9683 20.8946 27.4165 25850 2
66.1459 20.9375 26.662 11550 2
64.9547 19.2019 28.4125 31025 1
63.149 18.215 26.3837 12512 1
68.3916 19.3762 26.2139 30802 2
69.9257 20.5343 28.1674 1659 1
67.697 19.2287 29.1602 30814 2
67.2501 21.9736 28.8072 12415 1
74.6429 20.2376 28.7614 12412 1
73.8337 18.5346 26.7353 12895 2
71.5484 22.1204 27.887 11516 1
71.4635 20.2774 25.6403 22613 2
74.1452 21.7114 26.6411 30808 2
72.2631 20.0019 28.4 12506 1
19.5773 23.5159 25.2685 1887 1
19.5857 25.1041 27.1073 1930 1
21.9554 25.9396 27.8377 2818 1
17.6691 24.2261 28.952 2761 2
22.2894 24.4576 25.6721 1886 2
22.3176 23.3472 28.7942 1841 2
24.593 25.6358 27.641 976 2
25.3726 23.7579 29.5796 2770 2
27.0156 23.873 26.7572 1889 2
29.4569 22.7153 26.102 936 1
29.7324 24.761 27.5198 2771 1
27.3535 25.5941 29.2936 2764 1
28.2371 23.3277 29.3548 24989 1
32.2258 23.288 27.0311 2775 2
31.5887 26.5434 26.9866 1946 2
33.5602 25.3757 29.2158 2825 2
34.6626 26.3747 25.7406 25028 2
35.0393 23.7397 27.4423 2778 1
37.4084 26.5192 25.7893 1951 1
37.7709 24.0429 26.6584 25025 2
39.3812 26.7865 28.3098 4664 2
36.7113 23.5522 29.2209 5526 1
36.5242 26.1246 28.3516 2828 2
40.0555 26.5214 25.4586 1958 2
43.4504 23.4698 25.9123 22532 1
40.7094 23.6611 26.7348 23152 2
42.4439 25.6731 27.6109 3759 2
46.3557 22.83 26.4456 4627 2
44.8251 24.3421 28.0413 21900 1
47.508 25.8783 26.6062 2786 2
47.5201 24.3399 28.8893 4629 1
46.3048 26.2921 29.4034 3720 1
45.018 26.5101 27.3671 2006 1
49.3552 23.4461 25.7582 750 2
52.5682 23.1658 26.1515 2024 2
50.6036 24.5366 28.2148 1107 2
50.335 26.2699 26.4235 2027 1
53.6004 24.473 28.2111 21056 1
53.0379 26.0013 26.1838 42770 1
55.8504 25.7824 26.3724 40027 2
55.4458 22.4614 26.9072 30857 2
56.8511 24.4021 28.7331 2028 1
55.0223 26.1127 29.6299 1056 2
60.9146 22.5087 25.8583 20104 1
58.8598 23.8461 26.7725 20098 2
60.6349 25.7873 28.0992 20201 1
58.1513 26.8105 29.1208 3827 2
61.4999 25.3732 25.4958 713 2
61.7873 23.6585 28.1498 20096 1
63.8121 23.6042 25.8962 20100 2
63.8671 25.8572 27.6073 19684 2
64.5639 23.0004 28.7582 25880 2
66.308 23.7936 27.0941 12414 1
69.032 22.5804 26.6895 12867 2
67.0113 26.1018 26.1648 25879 2
69.8207 25.4892 26.4619 19196 2
67.9203 24.6866 29.0496 12419 2
70.4254 24.0848 28.7405 20160 1
74.9031 22.7519 29.0437 12890 1
72.2857 25.9385 25.2524 19299 1
74.5008 24.1077 25.4759 20157 1
72.8269 24.6612 27.5378 1651 2
20.604 30.6097 25.1557 63546 2
18.5272 28.7363 25.6477 63548 1
20.3222 28.1399 27.6763 2763 2
18.9057 31.0392 27.5179 1936 2
21.3151 30.394 29.0076 1982 1
23.9417 31.0375 25.1297 1018 2
22.7218 30.0642 27.2584 1929 1
22.7749 27.8346 25.7016 1885 2
25.6204 29.3468 27.4602 1941 2
23.2944 28.3549 29.2341 2859 2
30.2466 30.4496 25.3322 1947 2
27.7042 26.973 26.8886 2769 2
27.8217 29.3373 25.5804 25059 1
29.7965 28.9609 27.8928 2864 2
27.5033 28.1536 29.2331 1935 1
32.4319 29.2148 26.8093 2872 1
34.738 29.2681 25.8957 24982 1
34.1211 27.7314 27.8874 24984 1
32.765 30.9618 28.8106 1993 2
35.7001 29.4822 28.746 3752 2
37.6751 29.0236 26.5474 2831 2
39.1355 29.884 28.5593 2862 1
40.5871 28.8688 26.891 2873 1
44.0026 29.9739 28.6837 2789 1
43.2002 28.5601 26.4136 2069 2
41.5942 28.8424 29.2697 2879 2
43.9552 27.4668 29.4321 2941 1
44.5896 30.8976 26.2436 3713 1
46.2601 28.7494 27.9604 2984 2
48.8239 29.7577 28.7555 2897 1
48.6895 29.029 25.9348 2072 2
49.1248 27.4464 28.4092 2893 1
52.3677 26.9056 28.6311 2898 2
50.8207 28.7856 27.4642 3666 1
52.6616 30.1311 28.4801 1156 1
51.49 30.9688 26.0181 25056 2
53.6782 28.7795 26.47 23129 2
55.9196 28.0912 28.1112 2071 1
55.0458 30.4604 28.5693 2029 1
58.8125 27.0465 25.9715 19234 2
57.942 29.7084 27.1865 20145 2
61.4453 28.4199 26.9185 25878 2
60.0639 28.9842 29.2424 2856 1
64.1894 27.5683 25.1357 20151 2
63.7934 28.5108 28.2931 20209 1
65.5247 29.7571 26.5128 21002 2
62.9653 30.6851 27.402 20257 1
65.41 30.8101 29.276 20150 2
68.6633 31.2136 25.1619 20158 2
66.3431 27.6149 28.7843 20207 2
69.358 27.3539 28.7682 21054 2
68.083 28.4835 26.5003 20216 1
68.4295 30.363 28.2312 21044 2
70.3041 29.3693 26.5702 20159 1
72.1518 27.806 27.4421 20113 2
71.0262 29.905 29.1425 20149 1
72.5781 30.4765 26.9069 19249 1
19.5279 33.4926 25.9648 1934 2
20.7436 34.9832 28.9142 1977 2
18.4596 33.6388 28.4821 2811 1
24.2158 31.4021 29.5801 2912 2
22.2045 32.6604 27.2914 2863 2
24.3253 33.7982 25.5701 1983 1
25.3753 32.3098 27.3735 1986 1