ITEM: TIMESTEP    
145000     
ITEM: NUMBER OF ATOMS  
77888     
ITEM: BOX BOUNDS pp pp pp
17.607 132.393    
18.0782 131.922    
26.0082 123.992    
ITEM: ATOMS x y z id type
19.7284 20.4528 26.5585 72779 2
19.5872 19.8234 29.282 1881 2
21.7659 22.3122 27.6231 977 2
22.3606 19.1135 28.5796 1839 2
25.2783 19.0709 27.4745 23170 1
25.4354 20.0157 29.6266 22628 1
24.2474 21.1351 27.4655 926 1
22.9215 21.295 29.7759 1848 1
27.5994 18.5547 26.6877 72824 1
30.1365 20.4354 28.6515 20062 2
27.0885 21.3483 27.7986 1846 2
27.8621 18.5133 29.17 1845 2
29.3433 22.4872 27.1886 1895 1
33.6327 20.9919 28.0857 43709 1
32.0682 21.7169 29.9507 25026 1
34.1708 22.06 26.1557 19151 1
74.8235 26.8087 31.4624 1076 2
17.5944 31.2126 72.8605 49949 2
35.9084 19.8949 27.8399 1851 2
39.0969 20.898 27.5197 22537 2
37.1525 21.7502 29.8955 1899 2
37.8754 18.3343 28.6619 22536 2
39.9838 18.2186 26.7905 1904 1
41.34 19.7073 28.9442 1854 2
43.6658 18.5789 30.1107 23128 2
41.8988 22.1652 29.9148 3665 1
41.9997 22.3822 27.3179 40934 2
41.8936 19.9192 26.3992 43666 1
43.8952 21.1002 29.4002 21871 1
44.3688 19.6907 27.223 1099 2
47.557 20.5479 27.4392 40834 2
46.0273 19.5058 29.6366 22576 2
48.0179 21.9209 29.4678 1908 1
45.2292 22.6417 27.6993 43705 2
50.281 18.8074 26.8749 38521 2
49.8835 21.4874 26.897 40893 1
52.6061 20.0223 29.6738 22574 1
49.8945 19.8518 29.5435 22529 2
52.5546 20.7779 27.0295 38365 2
56.082 18.8481 26.7094 21944 1
55.0421 20.2043 28.7219 12513 1
55.4542 21.5262 26.4476 39988 2
56.5569 22.0638 29.1942 13500 1
60.5315 21.9309 26.9621 31298 2
60.7637 19.1026 29.1291 19184 2
59.6998 21.9959 29.7654 31285 2
60.5964 19.1753 26.6363 31004 1
58.0256 20.1283 27.6861 38509 2
64.9181 21.6091 29.0091 21892 2
62.5134 20.5993 28.1789 31021 1
64.4059 19.5759 27.0066 30371 1
64.0616 18.5596 29.4843 30999 2
62.4369 18.1137 27.3172 31316 1
64.2307 42.3993 26.0906 19387 2
66.8527 19.4287 27.8764 31023 2
69.4344 21.17 29.8271 19245 2
67.6759 21.9311 28.1668 31293 1
67.0127 20.5314 30.3287 20998 1
70.5083 18.5566 29.6983 38366 1
69.5346 19.949 27.2728 30997 1
70.1534 22.4316 26.8152 31019 2
68.189 18.5608 29.8374 30809 1
24.4083 74.8508 66.1273 11708 2
74.6766 19.5992 27.5004 31289 2
71.8599 20.6375 28.6368 30996 2
73.8567 21.9227 29.7689 12413 2
73.0066 18.4307 30.0179 21403 2
71.5169 18.282 26.7293 30343 2
18.8134 23.0852 28.0058 1928 2
19.1442 26.0972 27.3076 970 1
20.8981 25.2573 29.0907 1885 2
21.516 26.6883 26.8712 52493 1
22.9917 24.6934 27.4587 25062 1
24.6246 23.2859 28.6915 25024 2
23.4892 25.7763 29.4726 1888 1
25.9608 25.4739 29.1591 1945 1
24.8429 26.5063 27.2086 25061 2
26.9112 23.3823 29.9286 1884 1
27.8715 24.6019 27.6812 1943 2
30.7368 26.0155 28.61 40920 2
29.8144 23.664 29.9021 1944 2
31.874 23.1733 27.6171 989 2
33.7139 26.1189 28.4615 1035 2
32.8225 24.2231 29.8974 25060 1
34.95 23.4014 28.5943 25027 2
35.7115 25.5544 26.6158 40922 1
36.9201 25.5698 28.9579 2729 2
36.8743 22.8362 26.5658 40928 2
39.519 27.187 27.625 2836 1
37.259 27.428 26.7329 2779 1
71.2034 18.1338 34.2451 12892 2
39.4802 23.6526 28.7092 3770 2
41.0038 25.0549 27.0833 1956 1
41.9845 24.5649 29.1147 2782 1
43.5113 24.8714 27.4347 41801 1
40.1273 26.4532 30.18 1958 2
74.7115 19.3897 66.5111 29537 2
43.9494 23.4413 29.9253 22532 1
46.3702 25.5517 27.0268 40939 2
46.6809 24.1563 29.5872 1153 1
44.5954 25.9968 29.5083 2837 2
50.917 22.1747 29.3442 1110 2
48.7949 23.9373 28.0908 40989 2
51.9288 23.6413 27.071 19180 2
50.7815 25.8269 28.5043 2020 2
17.8223 29.2772 74.7299 62060 1
54.0721 22.5484 29.1325 23176 2
53.4341 25.6188 28.7793 23642 1
54.9158 24.5246 27.0253 40025 2
55.3931 24.8291 29.656 40030 1
17.7908 57.4201 32.1131 54542 2
57.5441 23.8781 29.9666 23172 1
57.7631 26.0268 28.5822 18330 2
57.9379 23.2863 27.3957 38629 2
59.8217 24.6297 29.6017 20148 1
60.5576 25.1047 27.3093 199 2
62.8448 23.2969 26.4217 30803 1
62.2797 23.3845 29.0797 19285 2
64.7587 24.8764 30.0518 20106 2
64.7797 23.899 27.7171 18327 1
62.9528 26.2784 27.8787 19229 2
65.5848 26.4963 28.0126 18337 1
69.7095 24.2835 29.2462 1065 2
67.6249 25.6578 29.3381 19241 1
67.3791 24.15 27.0545 31294 2
70.3125 25.3678 26.3434 44061 2
67.3465 23.2731 30.4774 31002 2
73.2006 25.6726 27.1153 44079 1
72.0627 23.4443 28.4109 12457 1
71.6951 25.9042 29.0037 30290 1
74.1063 25.0319 29.3191 43162 1
74.7894 22.6165 26.977 39972 2
73.5937 18.0019 36.1136 12929 2
18.1676 27.3937 29.1565 63548 1
19.7427 28.8281 27.5453 1933 2
18.0343 29.899 30.0587 1936 2
21.5953 30.6971 28.8351 1071 2
20.3922 31.3998 26.3816 72807 1
22.49 27.893 28.7223 63545 1
24.2065 29.4647 27.7548 1023 2
22.0728 28.9944 26.0632 975 2
26.6095 30.1 29.4025 40916 1
26.467 28.5762 26.8674 986 1
27.9647 27.3862 28.464 39954 2
28.3814 29.7879 27.7266 19240 1
29.3632 27.6753 26.4144 41796 1
30.427 28.6654 28.4146 983 1
30.5991 29.7239 26.0552 1020 1
32.9708 29.4956 27.4676 41885 2
33.3245 30.7901 29.9566 1033 1
32.0146 27.4233 26.3705 43811 2
35.4582 28.3199 28.4267 40926 2
38.1012 30.5956 28.8676 2010 1
37.9962 28.2575 28.9987 1083 1
38.8293 29.5954 26.4147 1907 2
36.2952 29.8393 26.3418 2000 1
35.4682 31.1469 28.4812 41893 2
42.3677 27.4343 27.9193 41842 2
43.3613 30.0834 28.5627 43703 2
40.4325 29.4729 28.6344 40975 2
41.8591 29.4624 26.2737 1897 1
45.0974 27.8408 27.605 40985 1
46.5144 30.1011 27.4945 41032 2
48.1199 27.5468 28.2625 40935 2
45.612 28.6481 30.0601 41849 2
49.1304 30.0407 28.2459 1954 1
50.7272 28.2628 27.2573 42717 1
50.9018 28.6995 29.5732 2027 1
51.6534 30.8372 27.7444 1163 2
53.0298 28.1336 28.2506 40996 1
53.3499 29.2522 26.128 1105 1
55.3367 27.5789 29.4668 20144 2
54.9669 30.3455 27.9455 248 2
55.5223 27.5683 26.5181 19382 2
58.4709 26.9894 26.3689 19227 1
60.1948 27.5242 27.97 246 1
57.798 29.1365 28.2297 19231 2
61.3926 29.6779 26.87 2792 2
60.5008 30.5638 29.7531 200 2
61.9966 28.2489 29.3246 19243 1
64.2304 29.0062 27.6652 19242 2
63.8561 30.4324 29.5951 20214 2
20.5123 18.0143 67.522 62087 2
68.3519 27.1339 27.0623 30998 2
69.7099 27.2831 29.9693 19186 2
66.8831 28.3759 29.4167 12515 2
69.5925 29.472 28.2964 43818 1
66.9418 29.9279 27.1151 30833 2
17.6707 39.5662 74.2389 62050 2
74.4236 27.8015 28.6123 30993 2
71.598 29.6865 29.5375 19294 1
73.3997 30.5095 28.6138 43804 1
71.5394 28.0416 27.263 18339 2
36.1258 18.2206 70.1994 16330 1
30.7516 71.3519 26.1994 50703 1
18.3277 34.6842 28.6909 1017 2
21.0765 33.3741 27.8038 1060 2
20.7324 35.2787 29.6556 63543 1
18.795 33.6638 26.2981 74584 1
17.9824 31.5623 27.7334 63536 2
19.8753 32.6515 30.1527 1934 2
24.3483 31.8301 29.5739 63681 2
24.043 34.1469 28.1751 43702 1
22.6464 34.2351 30.1847 1069 1
23.498 31.998 26.468 72814 2
26.3932 31.4197 26.9617 40917 2
26.2466 33.5885 28.4284 1070 1
32.2087 19.1435 27.9975 2719 1
28.3578 32.0943 28.8313 40965 1
28.4047 34.1309 27.0067 1031 2
29.8005 34.0391 29.426 2916 1
29.309 31.6566 26.497 979 1
27.7404 35.13 29.7424 1989 1
30.8768 31.3659 28.6724 1940 2
34.387 34.4853 28.4254 24974 2
33.11 32.2606 27.7721 984 1
31.2455 34.3735 27.5523 1029 2
38.7996 32.664 27.3389 1199 2
36.6273 35.0571 27.1112 41937 2
36.8404 33.2283 29.3017 1080 1
39.0917 35.077 29.0874 20283 2
39.4163 35.2804 26.3378 19202 1
39.2293 32.2067 30.4063 41895 2
41.0475 31.5173 26.8207 42701 1
41.3193 34.3722 27.7415 2002 1
41.6574 32.5386 29.2917 2004 2
42.0337 35.7296 29.5683 2944 1
43.457 32.4414 26.3908 41848 2
43.9171 34.6609 28.1152 2990 2
45.7037 35.3159 26.1149 1197 1
47.6755 31.8613 28.8713 2942 1
47.0323 34.3742 28.3715 2067 2
45.2079 32.246 29.0251 43700 2
67.1739 74.9995 72.2763 25981 2
49.8734 33.0805 28.6824 237 2
52.1348 35.1847 29.5047 2022 2
51.6874 33.3909 27.03 291 1
52.5176 32.4381 29.7132 2902 1
48.8874 34.8096 26.0492 1211 2
49.2123 31.5439 26.1303 41898 2
48.7062 35.0574 30.3333 236 1
56.9756 34.5208 27.606 19334 1
54.1759 33.7707 27.828 20251 2
56.0073 34.2797 29.8025 1208 1
54.8787 32.0999 30.0559 249 1
56.9008 32.0297 26.7019 39077 2
57.4837 32.0581 29.3516 2077 2
59.3166 31.0835 27.4184 1109 1
59.5355 33.4632 27.3729 241 2
60.5802 34.0595 29.6086 19233 1
58.4044 34.7614 29.651 19235 1
19.1949 18.0458 62.5682 62511 2
62.3202 32.5242 27.7796 1112 2
62.8367 35.0289 28.928 43165 1
64.8864 31.8529 27.1404 18380 1
64.7438 33.5226 28.8023 19341 1
64.7061 35.1194 26.6707 19232 2
67.0902 34.8328 29.2083 19339 1
66.6701 31.9647 29.4451 19289 2
66.9668 33.1145 26.8159 19288 1
68.9245 31.586 27.2758 20162 1
69.0097 33.6216 28.3527 19293 1
67.8568 35.1435 26.8991 20215 1
73.6834 32.4626 27.237 19297 1
70.9649 32.1628 29.1161 19246 2
73.7091 34.9852 27.9961 43988 2
71.5006 33.4619 27.0118 18438 1
74.4764 32.7109 29.8434 19301 2
71.7142 34.3151 30.2714 19295 2
19.7983 36.9335 28.08 63542 1
21.4741 38.6112 29.6037 1979 2
19.5481 39.819 28.0264 63537 2
18.4255 36.0912 26.043 74330 1
63.8881 34.09 74.8053 14720 1
17.7844 53.2143 33.9419 56308 1
22.6232 36.3999 28.1902 1988 2
24.4634 38.9114 28.3334 2036 2
25.234 35.9935 29.5637 1075 2
24.3951 36.7589 26.419 2034 1
22.292 39.7158 27.3763 2045 1
29.5551 36.735 28.807 1074 2
26.8801 36.7379 26.9422 41015 2
29.5482 39.6869 27.9253 1028 2
27.3384 38.5313 29.2261 1122 2
30.08 36.8372 26.1981 1027 2
26.853 39.8493 26.5754 41016 2
22.2441 18.2112 61.2036 10014 1
34.8354 37.5293 28.8336 2829 2
32.0832 38.5888 28.3937 1079 1
32.8554 36.5234 27.127 41936 1
32.3124 36.4699 29.9653 1997 2
37.814 37.6591 27.5121 41068 2
37.1774 38.8532 30.2102 2061 2
36.8973 35.7514 29.9006 1995 2
66.4638 74.6729 37.2184 23587 1
74.8858 66.4294 61.1748 28888 1
40.5161 36.9177 27.5943 40988 1
42.2912 38.8954 26.8722 1204 2
42.7971 37.7345 29.3057 2066 1
39.987 39.7342 28.4712 41984 2
40.256 37.4547 30.3934 41994 2
18.879 75.0699 68.8052 11661 2
44.3042 37.1707 27.2967 1159 1
45.004 38.974 28.7139 41031 1
47.0653 37.1351 27.5418 330 2
46.2691 39.7523 26.1239 286 2
45.3937 36.5149 29.9952 2995 2
47.9766 39.8702 28.4199 2119 2
46.6242 39.091 30.5659 25017 1
49.7034 36.0354 28.4632 41035 1
51.5393 36.2366 26.7257 1155 2
51.0489 38.2475 29.3996 1162 2
49.5303 38.1296 26.2591 40108 2
48.4406 37.5742 29.9557 1213 1
54.8416 36.5532 26.1493 44000 2
55.5574 39.0708 26.6203 41085 1
52.8358 38.828 27.2085 18473 2
54.9349 36.547 28.6812 20297 2
54.4044 39.0157 29.1999 388 1
56.9732 39.3291 29.0943 18430 2
57.3593 36.8989 30.1848 19276 1
57.7865 36.9506 26.9763 288 2
60.9006 38.722 26.4625 18381 2
60.3186 36.0605 27.942 2121 2
59.345 38.5929 28.6899 18376 1
61.8645 38.4254 29.438 19286 2
62.8437 36.8898 27.3409 1119 1
64.188 37.1726 29.4734 20213 1
65.4932 39.216 29.8866 20260 1
63.9672 39.0162 27.9573 44031 1
66.3904 37.1782 27.8872 19281 2
70.6259 35.8821 27.3833 19349 2
68.7398 37.6539 27.4634 19290 1
68.063 38.7585 29.4988 163 1
70.5942 38.5195 26.3689 18383 1
69.265 36.0979 29.8829 19291 2
70.7797 38.761 29.1618 18437 2
72.1433 36.5478 29.4533 25899 1
73.8703 38.6344 29.7644 19352 2
72.8665 37.4888 27.2524 18386 1
74.5408 39.1182 27.2402 18489 1
19.1072 42.5648 29.1732 63648 1
20.0668 42.207 26.9229 63678 1
20.8658 41.3539 30.0455 63529 1
21.2887 44.3097 29.065 63528 2
74.9622 70.481 51.9021 26185 2
22.0598 41.8933 28.0334 21093 1
23.2254 40.76 29.9228 2039 1
24.4245 41.8042 27.0488 41066 2
24.022 43.347 29.7072 63091 2
26.3843 43.8163 28.5605 2969 1
26.3857 41.1984 29.3089 2037 2
28.2145 42.3862 27.7823 43701 2
30.8902 41.9806 26.3736 41883 2
29.6838 41.6908 30.3288 25055 2
34.0622 40.0859 27.6757 1998 2
30.9846 43.5681 28.6633 2090 2
31.7573 40.8977 28.7729 41941 1
33.8005 42.9827 28.0764 2051 2
37.0871 40.3665 27.3932 41072 2
38.2159 42.1037 29.5407 1202 1
36.6196 44.0008 28.1434 41939 2
39.2167 42.9717 27.2663 3133 2
35.5037 41.367 29.8248 2053 2
36.2231 42.4297 26.1968 2056 1
41.5784 41.3861 27.1401 1200 1
41.048 42.3932 29.7685 1198 2
42.9206 40.4535 29.0943 25047 1
43.3907 43.1747 28.1279 1251 2
21.0235 18.0519 31.1553 969 1
44.3639 41.0454 27.3098 25049 1
46.3444 42.757 27.3305 1254 2
45.7013 41.5823 29.65 25018 2
47.3596 44.6523 29.7798 1253 2
50.4232 40.0827 27.7201 290 1
48.6578 42.4258 28.5814 2113 1
51.2599 42.5198 27.6251 289 2
52.6589 40.7307 29.0434 20299 1
17.6337 71.6716 65.4832 10795 2
50.2483 40.8141 30.2787 2074 2
53.6549 44.0882 27.0787 1307 1
54.8122 41.5717 27.4488 18427 2
53.5518 43.3416 29.2772 39218 1
56.4746 43.8555 28.9385 19337 2
57.1661 43.0993 26.0963 1350 2
24.7188 74.8413 35.7014 24856 1
57.5156 41.7459 28.3014 18378 1
58.0259 40.184 26.2001 19282 2
60.0096 41.1122 28.6391 20206 2
59.1893 43.4191 27.7569 1255 1
61.3265 43.5282 30.2646 20298 2
61.6507 42.9489 27.5813 18479 1
62.5622 40.84 27.5746 18379 1
64.4927 41.7752 29.2397 19338 2
63.7226 44.0425 28.1176 18435 1
66.2033 40.2161 27.5788 18433 2
66.5497 42.9261 27.6824 19384 1
69.1389 40.6536 27.7236 18439 2
68.3853 43.2264 29.0897 19396 1
69.9016 41.4344 30.1764 19340 1
70.62 43.8884 28.7306 19389 1
69.0904 43.6161 26.3408 18436 2
72.2592 39.983 27.4151 18443 1
71.7017 41.5669 28.8884 20353 1
74.2666 41.4641 29.2924 20361 2
71.8594 42.652 26.4783 19401 2
74.8389 72.3144 72.9225 25193 2
18.7574 44.8746 28.0872 63282 2
18.9172 47.2751 29.0053 63280 1
21.33 47.025 27.9394 53468 2
20.7378 46.6932 30.4573 48662 1
24.1465 45.4224 27.374 63650 2
23.7322 48.0199 28.3042 2088 1
25.8369 46.1547 29.8345 2044 2
23.1168 46.0672 30.285 63083 2
28.5264 44.5546 30.0721 2971 2
27.3485 46.1845 27.1453 41064 2
29.8651 45.5937 28.0285 2049 1
28.4304 47.172 29.3044 1131 1
28.5421 48.4006 27.1374 41062 1
30.9311 46.1576 30.1215 2046 1
29.3745 44.3393 26.1749 42710 1
30.9987 48.3158 28.2096 41946 2
32.7991 46.0544 27.73 2157 2
34.4539 48.1972 28.5386 2095 2
34.9069 45.4654 29.4631 3952 1
32.7663 44.6833 30.1549 2979 1
32.6119 48.3114 26.0389 2092 1
39.0632 44.4801 29.7287 2156 1
38.7409 46.0368 27.145 41124 2
35.88 46.3504 27.3113 41990 1
37.3834 46.8011 29.3323 2159 2
36.9528 48.4273 27.2596 2155 1
41.1622 44.7448 27.9255 1249 1
40.3931 46.6378 29.3309 1292 1
43.2145 45.7537 28.2125 2162 1
41.6089 47.5724 27.2259 1293 2
42.9946 47.5464 30.1311 25009 2
44.5943 47.8696 26.996 2169 2
45.4748 45.4201 27.9068 381 1
45.713 47.2979 29.5553 21219 1
47.591 46.8375 28.1432 385 1
47.3559 48.8864 29.7057 2214 1
44.6112 44.7412 30.4282 19458 2
50.3049 47.3805 26.5059 1305 2
49.3503 44.6465 27.2665 340 2
52.1374 48.1246 29.2051 1345 1
49.6681 47.0596 29.5335 2208 2
52.1448 45.5045 28.6215 25040 2
74.7743 25.3952 38.3244 19731 2
54.6644 46.1928 29.0814 1306 2
56.2005 47.8428 26.8132 19426 2
56.7757 47.9596 29.9219 21280 2
53.248 47.1603 26.6031 1298 2
55.6452 45.1195 26.5928 1264 1
58.2045 46.2471 27.8195 1303 2
61.2899 45.7064 28.1087 20338 2
59.0442 44.5928 29.7641 25046 1
62.5186 47.4973 29.7508 259 1
63.4863 45.3676 30.0411 20304 1
64.813 46.5204 27.8573 19386 2
62.7966 47.858 27.0192 1274 1
65.774 47.8697 29.9458 25875 1
65.9401 44.3718 29.7728 21284 2
67.7475 45.8628 28.1369 21192 2
68.7469 47.9962 29.7381 19439 2
72.9972 44.0286 28.6415 2141 1
70.4766 46.3282 27.4065 19436 2
72.5786 45.3408 26.5322 18542 1
74.397 46.4292 28.6569 20313 2
73.2077 47.9939 27.0846 19445 2
71.8157 46.4589 30.0559 25873 2
19.2399 49.4366 27.786 63274 2
18.0332 51.8467 27.7089 54461 1
21.3225 49.4282 29.5638 48858 2
20.3119 52.6303 29.2145 63060 2
18.1185 50.718 30.0591 63275 2
20.2471 52.0077 26.1827 63632 2
26.3401 48.6779 28.5637 63281 2
24.1392 50.294 28.5678 63527 1
25.3411 51.5508 26.9616 2085 2
22.5451 52.0521 27.8687 63486 1
25.6979 52.353 29.5599 63483 2
22.2353 49.667 26.5789 48669 2
22.8197 51.9006 30.5021 63234 2
28.2745 50.9298 28.0956 24951 2
30.0858 52.9122 27.7751 2040 1
44.964 18.0572 48.7835 20339 1
52.5665 74.7706 34.472 23482 2
30.8554 50.9056 28.7291 40237 1
32.903 50.1319 27.6962 41115 1
34.688 51.1228 29.0045 41120 1
32.7452 52.7588 27.6872 2048 2
32.825 49.8496 30.4694 3028 2
17.79 69.497 33.3193 55739 2
39.5094 48.9004 28.2842 1294 2
37.1874 51.4216 27.7036 378 2
36.5602 49.5238 29.4061 63642 1
38.3427 50.6385 30.1208 1336 1
37.566 53.0399 30.3179 2199 2
65.2409 49.637 26.0968 20344 2
39.9662 51.8251 28.5165 1339 2
42.1698 50.15 27.2427 2200 2
43.8397 52.2489 27.0969 383 2
42.3181 50.263 29.7808 2242 2
47.4596 49.1988 26.8365 41079 2
45.124 49.8599 29.1217 1295 2
46.446 51.4592 27.4925 394 1
47.8324 51.7427 29.7892 25836 2
49.6825 49.7787 28.3949 2213 2
48.6868 52.5291 26.9114 3092 2
52.1552 50.2074 26.7841 25001 2
50.7396 52.5905 29.0964 4065 2
52.1821 50.5666 29.5127 1301 1
60.4962 74.8741 36.7789 23539 2
54.4171 49.3417 28.448 19428 2
56.3126 51.2921 26.83 1268 2
53.9278 52.5703 28.5286 25885 2
56.6559 50.9755 29.7746 25890 2
60.3595 48.6392 28.2778 2172 2
57.9245 49.3691 27.8523 19470 1
59.1746 51.1772 28.8179 3150 1
60.5408 53.0135 29.5709 19379 1
58.8085 49.3209 30.5067 1310 1
61.3577 50.3174 30.4607 20342 2
61.7436 51.4745 27.5917 19483 2
63.8486 49.4641 28.5903 18534 2
64.5578 51.8122 27.8609 20397 1
63.8067 52.1376 30.3571 20392 2
74.9289 39.2356 60.3445 12050 2
66.8345 48.6686 28.0339 25042 1
68.9928 48.9422 26.6224 18476 2
67.2143 51.5063 27.4771 19482 2
69.0335 50.5508 28.9968 1224 1
66.3632 50.5158 29.9874 20351 2
70.0194 52.0403 27.0542 19488 2
74.2175 48.7852 29.9678 25005 2
71.1527 49.1527 28.6047 2268 2
73.0317 51.076 27.4984 19532 2
71.2109 52.0051 29.8334 20394 2
18.9931 54.9266 27.4389 63500 2
21.6232 54.5286 26.9354 63481 2
20.999 57.1926 28.2276 48680 2
22.2241 54.6058 29.4986 63046 1
23.9058 53.8831 28.057 63235 1
24.0499 56.5805 26.8735 63634 2
25.1338 55.7791 29.5305 63188 2
25.9851 54.4063 26.5265 2084 2
23.2302 57.2097 29.619 63485 1
27.7771 54.2875 28.791 2089 2
29.4519 56.6229 29.1013 3022 1
29.266 55.3218 26.718 40191 2
26.9292 57.264 27.6461 63479 2
30.8768 54.8005 29.472 40239 2
31.9999 55.6712 26.5258 42703 2
33.5691 55.2333 28.8152 41977 1
74.9394 42.1107 69.2278 28567 1
35.4757 53.5956 28.0986 41170 2
36.9818 55.8836 27.4144 477 1
38.3012 56.423 29.693 3191 2
38.4924 54.1388 27.9309 19545 1
39.5221 56.3781 26.5817 1343 2
39.9921 54.1681 30.1099 2201 1
41.4167 53.84 26.3748 431 2
42.3335 56.9987 26.291 435 2
42.3089 53.0626 29.3628 1388 2
41.0553 55.5897 28.5349 481 1
43.1472 56.0805 30.0108 2289 2
43.7899 55.0002 27.7466 1386 1
45.3803 52.942 29.7206 1389 2
46.2172 53.8879 27.4528 2240 1
47.8918 55.6768 26.7255 1348 2
45.7298 55.5452 28.9976 1347 1
48.3005 54.7405 29.4365 1297 2
50.3281 54.6283 27.6168 19565 1
49.8396 57.2725 28.4924 20463 2
51.7586 56.7013 26.9163 1399 1
52.229 55.5045 29.5065 1397 2
52.5624 54.4788 27.0354 1352 1
54.8801 54.95 28.6023 19469 1
54.3543 56.6217 26.5618 20435 2
54.5864 57.0573 29.4144 19657 1
55.4632 53.7339 26.7831 19473 1
57.1523 55.4681 26.9009 19517 1
56.3004 53.8901 30.413 25867 2
57.7692 53.0802 27.948 1267 1
60.1424 54.014 27.1424 20390 2
58.3858 55.0068 29.553 25887 2
59.2548 56.5419 27.4285 18630 1
61.5414 56.269 28.4226 25865 1
62.8312 54.0559 28.7631 19476 2
65.6969 54.1095 28.5836 19486 2
64.3294 56.8183 27.9742 19570 2
63.3076 54.5468 26.1686 18633 2
68.435 53.2131 29.7742 20391 2
67.4204 56.1453 28.1091 19585 1
69.2158 57.0298 26.2091 19586 2
68.5079 54.3057 27.0869 19523 1
67.1298 55.7117 30.3812 20445 1
70.4631 55.0028 28.6596 19524 2
72.8679 54.1955 29.7394 20447 1
72.6806 53.6019 27.4137 20402 1
73.6195 56.3685 27.6311 20444 2
74.9237 55.5633 30.1064 20446 1
18.1908 57.7683 27.4689 63187 2
21.2751 59.5286 26.9195 63438 1
19.2192 59.9163 28.2815 63040 1
19.2212 58.3327 30.0301 63185 1
21.6056 60.012 29.6138 63183 2
72.9909 18.1193 49.8803 18364 1
23.7762 59.2521 27.9574 63433 2
25.6834 58.676 30.2088 53648 2
26.1107 61.3114 29.0378 63042 1
28.4501 59.6293 29.3002 63272 2
26.5604 59.7922 27.3831 63410 1
29.6367 60.7002 27.3553 53557 1
30.0416 58.166 27.116 25023 2
32.2321 57.5459 29.0199 2982 2
32.8093 58.5126 26.2927 41981 1
31.0535 60.4294 29.857 3012 1
33.2679 59.4786 29.9096 24941 1
32.3492 60.5572 27.6837 1382 2
35.1125 57.918 28.547 428 2
35.1176 60.8186 28.0598 24999 2
37.799 58.5664 27.1494 1338 2
37.5357 59.3856 29.8298 1385 2
39.0799 61.2937 27.8276 24937 2
40.7238 58.2064 28.8943 429 2
41.5802 60.7444 28.2345 19607 1
43.2882 58.5378 28.8823 1387 1
43.3197 59.7375 26.5861 479 2
40.5476 59.3021 26.4755 41125 1
47.2949 57.3552 29.164 1393 1
44.9761 57.3709 27.4392 1390 2
45.289 60.2896 28.6216 1445 2
47.3984 59.5747 30.0118 2294 1
47.9637 61.4527 27.5271 1444 1
47.6215 58.9041 27.1275 1447 2
52.7593 61.3239 26.9021 2342 1
50.6264 60.0419 27.6086 19569 2
51.4883 60.8122 29.9715 25035 1
52.6274 58.5439 28.7747 1398 2
74.9614 53.5777 37.3819 20442 2
56.9886 57.6948 28.4924 448 2
53.7243 61.2017 29.1855 24996 1
54.9743 59.4456 27.4143 20473 2
55.9499 61.6944 29.3076 25862 1
57.5912 60.5974 27.5423 19618 2
59.8703 57.7906 29.658 444 2
60.0723 60.26 28.6884 20476 1
59.3661 58.9655 26.5183 19575 2
58.1124 59.987 30.4389 20477 2
61.8337 58.7081 27.8694 19572 1
64.4626 59.4986 28.2582 19520 1
63.7228 61.8505 26.4271 19580 2
62.4979 61.2185 28.7452 19623 2
62.8754 58.1763 30.2576 20428 2
65.5045 61.2772 29.8298 20528 2
69.0392 57.7335 29.4879 19626 2
66.7398 61.214 26.8247 546 2
66.8198 58.6836 27.3044 1420 2
69.7349 60.4354 27.772 20487 2
67.8241 60.3207 29.4822 20483 1
71.1697 57.5501 27.9962 20488 1
74.4802 61.3541 29.3203 20497 2
72.8699 59.522 27.5864 20485 2
74.3478 58.4008 29.8427 20489 2
71.5248 61.647 26.4221 19632 1
20.8367 62.1493 27.7753 63425 2
20.2643 65.5569 27.3942 54635 2
18.9396 63.4795 26.6642 53783 1
19.5602 64.096 30.1948 63146 2
22.2988 62.5329 30.2592 63233 1
17.7765 65.1118 28.2144 55588 1
23.8495 62.2855 28.0804 54632 2
25.4413 65.0399 28.3812 63028 2
22.3117 64.4301 28.9404 48872 1
22.8071 64.3749 26.1525 63600 2
23.7452 66.2872 29.948 55685 1
25.3485 64.0422 26.1183 63474 1
29.0244 62.1051 29.8661 48774 1
27.6926 62.7153 27.4084 63227 2
27.8439 65.7292 26.559 5799 2
29.2841 64.8705 29.4183 63176 2
27.1223 63.4649 29.9046 63043 1
30.8237 63.0477 28.0427 24954 2
30.6789 65.4099 26.5451 5309 2
33.5852 62.2777 30.0292 3025 2
33.8081 63.596 27.1551 19499 2
32.2269 64.8434 29.1649 2284 1
36.7735 62.1287 29.5961 20458 1
36.8343 62.7613 27.0343 2288 2
38.6597 65.1926 27.7797 2328 2
35.7802 64.6162 29.1118 3184 2
38.7473 63.5365 29.8659 1384 2
35.6255 66.097 26.2485 24997 2
41.658 63.2495 28.9106 1439 2
40.8928 65.425 30.1022 2331 1
43.8653 62.3346 27.4925 1391 1
41.5556 65.7287 27.9358 572 1
41.7474 61.9677 26.2493 25906 1
68.7054 74.9689 69.8403 26951 2
74.8088 55.8672 35.1171 21348 2
44.2702 65.2013 28.0465 1442 2
44.3786 63.0514 29.8232 1438 1
46.6217 63.3198 28.7393 1443 2
45.5169 65.5778 30.1895 19652 1
45.884 61.6995 26.4442 1395 1
49.1066 63.7189 28.4665 25036 1
51.5095 63.0182 28.686 19617 2
22.2492 18.0036 41.4907 3644 2
50.4723 65.574 27.123 1446 2
50.9405 65.9262 29.8942 2388 2
48.9285 61.5979 30.2466 2387 2
55.0719 61.9691 26.5903 18770 1
54.2201 63.2202 28.3227 19665 1
55.8559 65.6465 29.5089 2430 2
53.2115 66.0318 27.6756 2381 2
53.3177 64.8327 30.0424 1490 1
74.9402 19.9721 42.7827 8497 1
56.9406 63.615 27.6852 20521 2
60.12 65.2259 27.3706 19670 2
58.5616 65.1142 29.3402 20522 1
59.7641 62.5642 29.8417 20525 2
59.8668 62.4372 27.006 18729 2
61.384 65.0355 30.0772 20566 2
62.4909 63.7617 27.8795 25860 1
65.3045 63.4488 27.6445 19625 1
64.0275 65.4998 28.0284 19624 1
64.062 63.7369 30.1841 20575 2
18.6963 18.1513 41.1919 4552 2
66.7125 65.6217 28.9185 21433 2
67.7324 63.8562 26.8704 602 1
67.7741 62.6413 28.737 20533 1
70.3223 63.705 27.5711 20527 2
69.0513 64.7206 30.084 25854 1
71.7924 61.882 28.8787 21396 1
73.5721 63.2968 27.4899 19679 2
72.3237 66.1313 27.9888 21693 2
71.6124 64.1068 29.8492 19639 1
18.8405 67.779 28.0216 54678 1
21.2841 68.4242 27.3217 63142 1
20.9518 67.1279 29.8864 63177 2
18.3591 66.4991 29.993 50692 1
19.8694 70.1972 29.4222 54810 2
19.3191 70.4448 26.568 54856 2
17.7196 68.6827 30.0958 55780 1
22.8432 66.7127 27.7886 63141 1
23.13 69.2851 29.3446 54677 2
25.0029 67.5791 28.1473 63140 1
23.7784 69.256 26.3858 48693 2
25.6476 69.8769 28.2349 63124 1
27.5528 67.7668 28.9581 63144 2
26.8194 68.6527 26.543 55682 1
29.3269 67.9166 26.828 1383 1
29.658 70.316 28.3032 63139 2
33.0688 66.0884 27.2608 24853 1
30.6972 67.2172 29.114 63037 2
31.8254 68.7545 26.7941 63014 2
34.4271 68.1216 27.8325 48819 1
32.7112 69.4426 29.5998 4408 2
33.9514 66.7419 30.076 5806 2
38.6513 66.412 30.1161 2332 1
35.4386 69.7495 29.3388 3598 1
36.9369 67.8429 28.5731 2373 2
38.3811 70.2588 29.3251 2419 1
38.2104 70.1542 26.6285 4204 2
39.9566 67.9941 28.3602 1482 2
42.5272 69.3741 27.793 579 1
42.628 67.5972 29.8299 2420 2
41.7628 70.081 29.7635 1485 1
43.2282 67.5023 26.1866 527 2
47.96 65.9852 28.975 19614 2
46.3044 66.4823 26.7885 525 1
45.4063 68.1494 28.689 578 2
47.6443 69.786 29.6074 3294 2
47.7186 68.4744 27.2668 1528 1
44.439 69.9332 26.9099 530 1
49.6907 68.0926 28.7896 2338 1
52.0004 68.0577 28.6227 2427 1
52.1188 70.1655 27.4516 2431 1
50.6488 68.5959 26.4196 1488 2
74.9397 23.3615 35.2041 12890 1
54.1517 69.9077 29.496 1533 2
55.2987 67.9903 27.8719 2425 1
56.8006 68.7193 30.1545 2439 2
53.7422 67.3356 30.2283 2384 1
60.4435 69.0282 27.4319 19718 2
59.1347 67.8497 29.3308 20569 1
57.6801 67.0424 27.4076 25882 2
57.5306 69.9068 27.4169 19667 2
61.4353 70.1752 30.2653 20570 2
61.6477 67.4976 29.5221 20571 1
62.3308 67.1102 26.847 18779 2
63.263 69.5087 26.3188 21779 1
65.3506 67.7618 27.3774 20529 2
63.4494 69.2679 28.5791 21735 1
65.5628 68.8058 29.7315 19669 1
64.079 66.8575 30.1994 20524 2
69.8635 66.2309 30.0281 23502 2
68.8846 66.4896 26.9841 18736 2
67.8833 68.9899 28.6381 22589 2
70.2135 70.5097 27.476 18741 1
70.3182 68.3194 28.1835 25816 1
73.1335 69.0378 27.5832 2592 2
71.9894 68.0994 29.6464 25853 1
73.9158 69.9925 29.9154 21748 1
64.6267 74.6831 50.2863 26172 2
74.6056 67.327 29.8551 22592 2
18.8088 72.8014 29.008 54859 2
18.5988 74.3061 26.6153 63363 2
21.3998 73.7931 27.9405 63116 2
21.8759 70.9759 27.678 63128 1
22.0796 72.2271 30.3319 62901 2
24.1843 72.3366 27.2792 63118 2
24.8208 71.4935 29.6295 63010 1
24.0255 74.1229 29.8236 4505 2
26.4482 73.6419 29.0387 48908 1
27.7686 74.4881 27.1564 3538 1
28.5086 72.5975 29.7019 4507 1
27.2785 71.849 27.3935 63125 2
30.1723 73.6012 27.6328 3587 2
31.0543 72.1823 30.3522 3543 2
32.8132 18.1487 37.6901 3650 2
34.4876 71.4368 27.7777 21775 1
32.2742 71.4779 27.9878 4458 1
33.2768 73.8853 29.0571 3599 2
32.6269 73.4092 26.5051 4512 1
34.4966 71.6258 30.3499 3544 1
38.4759 73.2602 26.417 22511 2
36.5469 71.8768 28.4718 3597 1
38.7701 73.0064 29.4203 4520 2
35.5479 74.0614 27.202 3602 2
35.958 74.102 30.3815 23876 2
42.3398 73.4008 26.3464 577 2
40.5461 71.3646 27.747 2374 2
42.1658 73.0201 29.4568 1532 2
40.3763 74.4298 27.6728 19699 1
74.5906 30.4323 63.4195 29401 1
46.5756 71.0321 27.3385 3300 1
44.2055 70.8059 29.3489 1483 2
44.6661 73.0247 27.231 1487 2
46.7116 72.6074 29.5465 2424 2
45.0967 74.7979 29.1448 21842 1
48.232 74.5753 27.6316 1531 2
49.5466 71.5347 27.7547 2426 2
51.0152 73.8187 28.1878 21736 1
52.0461 71.9152 29.2436 22630 1
66.653 33.583 74.7897 27463 2
52.2711 73.9977 30.4431 22632 1
54.6481 70.8616 26.7697 25821 2
53.811 73.1143 28.3443 21526 1
55.5281 74.3481 29.2814 21729 1
56.6965 71.7939 29.0578 21476 2
55.6797 73.3714 26.8212 12850 1
58.811 70.3214 30.0925 25855 1
57.9038 72.3726 26.5169 2432 1
58.3755 74.5122 28.6997 20618 2
59.7832 71.8978 28.2164 20619 2
60.4261 74.1331 26.3839 21788 2
62.3602 71.2368 27.8849 25856 1
65.4417 71.1416 28.2893 20824 2
63.3719 73.9482 27.6791 22588 2
63.5983 72.1017 29.8757 25778 1
63.6269 74.3714 30.3564 23542 1
68.7569 72.1984 29.1374 21737 2
66.3534 73.785 27.1212 21781 2
66.0762 73.56 30.1016 22638 2
69.9999 72.8448 26.2897 22688 2
67.8974 71.2463 26.9195 21740 1
74.6187 30.6118 37.6876 21051 1
71.492 71.0541 29.8256 22642 2
72.3289 71.7022 27.2894 21785 1
71.5443 73.5602 28.5837 25817 1
73.8767 73.6999 26.897 20834 2
74.0245 72.6269 29.7509 21791 2
21.3883 18.962 33.7666 2716 2
18.5464 19.3201 32.1084 59349 2
21.1783 20.5355 31.5758 25064 1
19.7538 22.3757 32.6853 20051 2
24.463 74.7615 53.2518 24613 1
23.5373 19.183 31.3214 20009 2
25.048 21.9447 31.4934 24990 2
24.2443 20.4208 34.0222 3701 2
22.5861 22.2593 33.4241 1841 2
26.3143 18.4911 31.9463 784 2
26.8109 21.0197 33.3828 2772 1
27.9144 21.128 30.7355 2717 2
28.6301 18.9749 33.1233 1847 2
29.0281 21.8697 33.2406 2776 1
33.1922 18.9781 30.3471 23637 2
34.4718 21.3906 30.4036 2726 1
30.5583 19.2258 31.5181 1891 2
33.2753 20.4976 32.663 987 1
31.2845 20.5617 34.4106 3653 2
35.8636 19.321 30.4102 20120 1
38.58 19.1408 31.1621 21910 2
35.7295 21.0218 32.6322 1900 2
38.6159 19.6693 34.3325 3663 2
38.3901 21.6911 32.7402 3662 2
67.59 74.9408 59.2037 28049 2
39.7483 21.399 30.2462 3657 1
41.5203 19.9419 32.053 22582 2
41.2992 19.3877 34.5604 25771 1
74.7514 22.3832 41.7746 10565 1
43.9691 18.7728 34.1643 3667 2
44.5421 20.0117 32.1074 12875 1
45.7722 21.5595 34.1405 2791 2
47.081 18.6274 34.5017 21060 2
47.9101 19.9959 31.9409 23264 2
45.992 22.0777 30.9829 4627 2
48.4106 21.9529 34.265 2736 2
50.2349 21.3179 32.0663 21895 1
51.5376 18.744 31.8041 3670 2
49.9556 19.5155 34.0305 22528 1
52.9415 21.8167 31.853 2785 2
51.439 21.4968 34.8092 22570 2
53.2148 19.8522 33.8078 21898 1
55.3508 20.9157 30.9503 23127 1
55.6852 20.1278 33.2592 22564 2
54.2618 18.5082 31.0132 22533 2
57.3583 19.2289 30.6557 11602 2
57.953 21.4937 31.8557 23632 1
58.3831 19.422 33.735 21893 2
59.7678 19.756 31.6386 20993 1
60.597 21.4311 33.4319 20141 2
61.4719 18.1707 33.1992 22527 2
57.5315 22.2268 34.0985 12459 1
62.1053 20.6715 30.9346 38322 2
64.8303 20.3405 31.2146 12897 1
63.5943 20.5257 33.5644 25850 2
65.4986 18.8914 34.0591 31025 1
63.6254 18.168 32.0289 12512 1
66.6425 21.1761 32.9835 11550 2
69.0255 19.4993 32.1385 30802 2
70.0837 20.6428 34.2325 1659 1
75.0942 41.8858 38.8378 22062 2
71.8747 20.281 31.8084 22613 2
74.5187 21.774 32.9294 30808 2
72.6748 20.0512 34.4596 12506 1
72.0132 22.1828 34.1704 11516 1
74.1558 18.4847 32.9399 12895 2
20.367 22.2526 30.0563 1887 1
19.0852 24.2841 30.9331 1930 1
20.7311 25.859 31.8276 2818 1
19.7766 25.3803 34.0041 2809 2
18.1973 26.8535 31.6704 2763 2
22.2484 23.6736 30.9909 1886 2
24.9603 25.051 31.5537 976 2
25.4547 23.4182 33.9177 2770 2
22.871 25.2094 33.6457 2820 2
30.6 21.8333 31.7658 936 1
27.946 25.8021 30.933 1889 2
26.9154 25.7923 33.3181 21001 1
29.4086 24.3742 32.5609 2771 1