ITEM: TIMESTEP    
20000     
ITEM: NUMBER OF ATOMS  
77888     
ITEM: BOX BOUNDS pp pp pp
17.607 132.393    
18.0782 131.922    
18.8457 131.154    
ITEM: ATOMS x y z id type
20.5191 18.6315 21.8175 1839 2
19.1415 21.157 20.8178 72779 2
21.5641 21.6337 22.7273 977 2
20.2977 18.4795 19.0101 20011 1
22.0711 20.6881 19.6723 72830 2
23.0899 19.3356 22.1929 23170 1
25.6504 19.5921 22.0167 22628 1
24.2831 21.3669 20.6726 72824 1
24.8583 19.3389 18.9706 1021 2
24.5834 21.353 23.1347 1848 1
27.0239 21.7052 21.4729 1846 2
29.9943 20.8106 22.3551 20062 2
29.723 21.4441 19.8137 2719 1
27.866 19.0387 20.0938 22548 2
32.3718 20.212 20.1931 24988 2
32.9643 21.7044 22.3672 43709 1
34.8965 19.8813 21.4193 1851 2
37.465 20.8908 19.3698 22537 2
37.0309 21.6787 22.4611 1899 2
39.517 22.5491 20.0265 2790 1
39.469 18.6081 19.554 1904 1
39.772 20.0365 21.6927 1854 2
74.8124 66.1512 74.3822 26597 1
42.0663 21.7333 20.2463 40934 2
42.1514 18.3415 19.8188 23153 2
42.7746 19.8369 22.6185 23128 2
41.0844 22.0857 22.9046 3665 1
44.7415 20.138 20.1089 1099 2
47.6486 20.3858 20.7402 40834 2
44.7801 22.6123 21.9851 43705 2
45.8033 19.5588 23.2577 22576 2
47.4025 21.8704 23.1845 1908 1
49.8606 21.8942 19.7829 40893 1
50.7047 19.8264 22.1072 22529 2
52.2614 21.2076 19.274 38365 2
50.0298 18.9445 19.1784 38521 2
52.9376 18.3995 22.5772 22574 1
54.1457 20.7482 21.5873 23176 2
56.7035 19.3852 21.0746 13500 1
45.0558 27.9185 18.834 41897 1
58.5985 21.0261 22.4825 31285 2
61.0938 20.5105 20.0981 31298 2
59.8419 18.3749 21.8833 19184 2
75.1156 37.7809 21.1777 19298 1
63.9432 21.2016 20.5519 21892 2
63.1649 18.8958 19.3064 31021 1
65.8363 20.0923 22.3538 20998 1
67.1562 18.6266 19.855 31023 2
68.5814 20.7119 22.0355 19245 2
66.5377 21.1831 20.0493 31293 1
74.2839 20.0322 19.5364 31289 2
73.4429 18.8193 22.2434 21403 2
71.2496 19.8764 20.6813 30996 2
73.1606 21.8984 21.9734 12413 2
20.3199 23.1896 18.8778 19183 2
21.1882 24.1879 21.5187 25062 1
19.4216 25.307 20.1587 970 1
21.8359 25.5465 19.7769 52493 1
17.9982 23.7197 21.7672 1928 2
23.9535 23.6865 22.1126 25024 2
25.3938 23.3272 19.5519 926 1
23.1532 23.3799 19.6832 1942 1
22.6794 26.3602 21.9301 1888 1
24.5925 26.0898 19.871 25061 2
47.2116 17.8951 67.5082 16322 2
26.8209 24.8241 21.2368 1945 1
29.0829 23.6425 21.6893 1895 1
29.865 26.3657 20.2134 40920 2
28.2843 23.5747 19.1823 1943 2
31.2783 25.4858 22.4693 25060 1
31.7469 23.4002 20.4323 989 2
33.321 26.0886 20.6558 1035 2
35.0471 22.9327 20.4007 40928 2
35.5165 26.253 18.8454 40922 1
33.8788 24.4688 23.025 25027 2
36.5849 25.4147 21.4443 2729 2
39.1384 26.4327 20.7932 2836 1
39.2826 24.0474 22.1236 3770 2
37.8867 24.4576 18.7828 43667 2
40.8826 24.6779 20.0435 1956 1
42.2651 24.1198 22.103 2782 1
43.5218 24.0651 20.0334 41801 1
42.9915 26.5089 19.3389 1897 1
41.8165 26.8701 21.8947 41842 2
48.2115 23.6188 21.292 40989 2
45.402 25.5992 20.9828 40939 2
47.5173 27.1405 22.7707 40935 2
46.4916 24.5166 23.1489 1153 1
45.9774 22.994 19.1524 38643 2
48.643 26.1997 19.5668 23205 2
51.2519 22.7752 22.0828 1110 2
50.29 25.8447 22.3389 2020 2
51.4704 24.417 19.3846 19180 2
56.5692 22.4191 20.3234 38629 2
53.3737 25.8602 22.0111 20144 2
53.6514 23.4531 20.6688 23642 1
56.2221 24.9262 22.1366 18330 2
54.7847 26.099 19.4937 19382 2
58.7634 24.0009 21.796 20148 1
58.4021 25.8508 19.9392 19227 1
58.8708 26.651 22.1294 246 1
61.0925 25.4372 20.5102 19229 2
59.5257 22.9963 19.0635 199 2
61.3499 22.6778 21.9344 19285 2
62.3352 23.1193 19.2214 30803 1
64.078 24.4963 21.1912 20106 2
65.6151 26.3105 19.8598 18337 1
66.2009 22.8303 22.6968 31002 2
69.0786 23.5181 21.0179 1065 2
67.0448 25.2242 21.5986 19241 1
68.3704 26.6135 19.3846 30998 2
66.589 23.9148 19.2445 31294 2
71.4507 22.9435 20.0378 12457 1
71.2025 25.6444 19.8939 30290 1
73.4599 24.466 20.8167 43162 1
71.5529 24.4352 22.2685 19299 1
20.433 27.7695 20.7619 1933 2
21.3815 30.9797 20.3005 1071 2
18.2468 29.8941 20.7921 63536 2
17.5359 31.3396 23.6888 53355 1
22.7485 28.7509 21.6279 63545 1
24.8578 29.6835 20.3247 1023 2
25.3493 29.0259 23.0315 40916 1
27.1931 27.9546 21.0326 39954 2
30.1097 29.2608 19.708 983 1
27.8033 30.7226 20.2371 40965 1
30.8285 28.1057 22.3598 41845 2
32.722 29.5877 20.3994 41885 2
34.8774 30.4243 22.875 2010 1
35.4565 28.2455 21.2153 40926 2
37.5611 29.681 19.6963 2000 1
38.0362 28.4277 21.8378 1083 1
37.5279 27.353 19.3081 2779 1
40.1826 28.831 20.3581 1907 2
41.2814 31.0576 21.4566 42701 1
43.1762 29.4586 19.902 2001 2
43.2819 30.1973 22.9767 43703 2
44.4648 27.9086 21.7427 40985 1
45.7892 30.7027 21.288 41032 2
47.1204 28.6391 20.4204 41894 1
48.2983 29.851 22.4527 1954 1
48.8352 30.6352 19.4821 41898 2
49.4751 28.3274 20.9769 42717 1
50.6405 30.2136 21.7232 42715 1
51.742 27.3865 19.9755 1165 2
52.4466 28.4986 22.5095 40996 1
52.2667 30.6035 19.4771 1163 2
54.0631 28.5627 20.7041 1105 1
56.7121 28.0031 20.9781 19231 2
55.4504 30.1844 19.0817 248 2
53.4385 30.9744 22.2788 1164 2
55.3618 28.523 23.3461 1973 2
58.9124 29.5113 22.5059 200 2
59.8207 28.0798 19.766 2792 2
58.2326 30.2333 19.856 1109 1
60.9041 27.7159 22.2389 19243 1
61.0629 30.8734 20.0551 1112 2
63.333 27.032 23.1078 20151 2
63.3486 27.8422 20.2617 19242 2
64.47 30.5851 21.2596 19289 2
62.258 29.9312 23.033 20214 2
41.0079 58.0177 18.8326 476 2
69.5474 26.6598 22.4255 19186 2
66.3872 27.8757 21.817 12515 2
68.8625 28.8839 20.5161 43818 1
67.5113 30.8076 20.5966 20162 1
66.3642 28.9876 18.9234 30833 2
68.4478 29.7949 23.1097 20158 2
72.7788 26.9396 22.0473 1076 2
70.9443 29.0644 22.3793 19294 1
73.5755 29.9643 22.3262 19300 2
73.0861 30.8585 19.7377 19297 1
74.0469 28.5711 20.0036 43804 1
71.4312 28.5696 19.6495 18339 2
19.0897 32.495 21.7163 1017 2
21.7891 33.2043 21.9591 1980 1
21.0126 33.8951 19.529 1060 2
20.2396 35.0788 22.0408 63543 1
18.1653 34.7253 20.9096 1121 1
17.8297 27.7285 73.6819 62060 1
26.1432 31.798 22.3574 20152 2
23.8929 32.7899 20.2985 63681 2
23.445 35.4068 21.5447 1069 1
26.1847 35.1254 22.2491 1075 2
24.9107 35.2892 19.6659 43702 1
26.4459 33.2133 20.0607 1070 1
30.1151 31.4416 21.5899 1940 2
28.4197 33.5966 21.1883 1989 1
30.9647 34.5362 20.5465 1029 2
30.0555 74.9744 44.5511 7256 2
31.3722 31.8433 19.3892 41022 1
33.115 32.7439 22.4691 24974 2
33.2976 33.3222 19.8276 984 1
35.4423 31.4003 20.5151 41893 2
38.3911 31.5326 21.564 1199 2
36.1332 34.3027 20.9704 41937 2
38.5419 34.2917 20.0415 19202 1
38.4207 34.3016 22.9682 20283 2
40.4803 33.4492 21.2995 2002 1
43.3287 32.5262 20.5843 41848 2
42.6898 34.9987 22.2917 2990 2
43.7279 35.4827 19.617 1159 1
41.0533 34.8735 19.2686 41024 2
40.5589 31.7508 18.9847 40978 2
45.7758 34.3001 20.9677 2067 2
47.9779 35.2861 22.5026 236 1
48.2748 32.5231 21.9076 237 2
48.9624 34.6015 20.4054 41035 1
51.2893 32.9246 21.6571 2022 2
50.3153 32.8393 19.1869 291 1
51.3262 35.274 19.4317 1155 2
56.4798 31.2253 21.9595 2077 2
53.0905 35.0901 21.8096 1208 1
54.9332 33.4245 22.6356 249 1
56.6355 34.0646 20.8561 19334 1
54.1996 33.1719 19.9363 20251 2
58.7169 32.4263 21.197 19233 1
60.8049 33.8723 20.5382 43165 1
58.8085 34.8875 19.2188 1119 1
60.3725 32.3999 23.2523 20212 2
62.2128 34.6409 22.793 20213 1
65.7481 31.7655 19.316 19288 1
62.5415 32.5946 21.5311 19341 1
64.8899 33.7019 21.6369 19339 1
63.2378 35.0933 20.597 19236 1
38.1549 17.755 69.7146 16069 2
70.1843 31.4303 20.5774 19246 2
67.624 33.6961 20.2623 19349 2
69.087 33.1102 22.9895 19295 2
66.4068 31.8943 22.5448 19293 1
70.4932 34.3228 20.9163 25899 1
72.6555 33.0361 22.1212 19301 2
19.9456 36.6731 20.3118 63542 1
18.2179 37.1586 22.3927 63539 2
21.6466 37.5701 22.1539 1979 2
19.8015 40.0324 21.1314 63537 2
17.8588 38.1715 19.8617 63669 1
22.3951 36.7515 19.1835 1988 2
24.8473 37.833 20.8182 2036 2
22.4349 39.2537 20.0667 2045 1
23.4482 39.6037 22.8607 2039 1
27.6506 35.7985 19.7626 41015 2
29.2669 35.772 22.7391 1074 2
29.7541 37.56 20.3603 1028 2
27.1427 39.0653 19.1121 41016 2
27.4891 38.2821 22.2656 1122 2
30.3449 39.8752 22.6484 25055 2
33.7366 35.8602 20.9814 2829 2
32.0169 37.8611 21.7778 1079 1
34.7208 38.6478 21.2974 1998 2
34.6251 39.8149 19.0538 41071 1
74.9454 39.6408 26.9983 20270 2
37.5043 37.0003 20.7563 41068 2
40.0347 39.2471 21.9017 41984 2
40.2556 36.3855 21.3891 40988 1
42.6156 37.8317 20.701 1204 2
44.8662 38.7626 22.6484 41031 1
45.4801 37.3025 20.3352 286 2
47.8323 38.2373 22.1036 330 2
47.6653 40.0512 19.5092 41038 2
48.26 36.7546 19.2107 40108 2
50.4455 36.2885 22.2146 1162 2
49.8583 38.4531 20.3517 290 1
52.6487 37.8504 20.8984 18473 2
50.8327 39.2147 23.0359 2074 2
55.823 35.7301 22.676 19276 1
55.1306 36.2968 20.1169 20297 2
54.9384 38.382 22.2117 388 1
57.4155 38.2137 21.5145 18430 2
58.7995 35.3748 21.8534 2121 2
61.3294 36.9348 21.5445 19286 2
61.6144 39.2071 19.9078 18379 1
59.8951 39.7887 21.7107 20206 2
59.3142 37.6487 18.9777 18381 2
65.5634 35.5525 20.1656 20215 1
64.2993 36.4076 22.8134 19281 2
64.037 37.9405 20.0503 18433 2
62.8942 39.714 22.6825 19338 2
61.4376 35.7494 19.0267 44031 1
66.1401 39.2602 22.166 20305 2
67.0443 35.6789 22.4026 19291 2
66.9417 37.5574 20.31 163 1
69.1912 36.5815 20.3155 18437 2
68.9231 39.7011 20.3634 18439 2
68.4546 38.1345 22.7061 19340 1
72.528 36.2985 21.2577 19352 2
70.9222 38.4138 21.5953 20353 1
71.2164 38.1815 19.097 18443 1
17.6145 28.7058 28.3833 56033 2
74.4287 72.5026 74.3315 15179 2
20.3567 43.9095 19.51 48570 2
18.36 42.2866 21.0809 63648 1
20.7647 43.1509 22.5706 63528 2
62.2972 70.8856 73.1468 26554 2
71.0517 17.9357 51.4514 5899 1
22.3676 41.283 21.555 21093 1
24.8719 40.8507 20.3077 41066 2
23.3369 43.585 20.6815 63650 2
25.8332 42.8068 21.765 2969 1
30.287 40.5501 19.3988 41883 2
28.0323 41.1498 21.0864 43701 2
27.9351 43.8974 21.5499 2049 1
30.8526 42.879 21.6028 2090 2
51.5479 43.6496 18.9758 2120 1
32.5524 40.2 20.9011 41941 1
32.5887 43.8551 19.7713 24950 1
34.4519 42.1063 20.6495 2051 2
37.1776 40.1688 20.1526 41072 2
38.191 41.6571 22.1959 1202 1
37.2091 43.0297 19.6607 42033 1
36.5956 43.9796 22.3906 41939 2
40.0213 42.7835 20.4692 3133 2
39.772 40.0366 19.3177 42706 1
42.7797 39.8087 22.7164 25047 1
41.8792 40.8068 20.6332 1200 1
42.6968 43.649 19.6041 1249 1
43.5436 42.5761 22.045 1251 2
44.4585 40.1028 20.6694 25049 1
46.3943 41.0962 22.4416 2119 2
46.4669 44.0262 22.5006 1253 2
45.6101 42.5793 19.6832 1254 2
48.935 43.2703 20.1562 340 2
49.0986 40.9667 21.6674 2113 1
51.3571 40.5085 20.0512 289 2
52.139 43.0052 21.5441 25040 2
66.5252 18.4191 56.7642 28140 2
52.9809 40.3728 22.2589 20299 1
54.7237 40.0437 20.1971 18427 2
54.5414 42.2249 21.8765 39218 1
55.9126 43.2848 19.538 1350 2
57.002 41.4347 22.0014 19337 2
60.6074 41.7416 19.6566 18479 1
60.2459 42.6384 22.5916 20298 2
58.6429 43.103 20.3267 1255 1
17.9125 19.8228 27.3392 59349 2
62.7737 44.0037 22.3994 20304 1
62.552 41.8126 21.1519 18435 1
63.7621 43.8162 19.8316 19386 2
64.8475 40.929 20.4081 19384 1
65.3451 42.6649 22.3105 21284 2
68.293 40.6403 22.9845 19389 1
67.2939 41.6814 20.7074 19396 1
69.6896 43.3571 20.3258 19436 2
67.9445 43.2887 23.0372 20308 2
73.2597 39.9305 20.433 20361 2
70.9137 41.0542 21.318 2141 1
72.6936 43.2539 19.899 18488 2
73.5898 42.0662 22.7545 19447 2
36.4975 18.1985 25.955 3659 1
18.4224 44.9753 21.4927 63282 2
21.9864 46.3586 21.5132 53468 2
19.2001 47.8621 20.7079 63274 2
25.5958 47.9071 19.9279 2085 2
25.7428 45.314 20.6275 41064 2
23.8584 45.3865 22.9514 2088 1
28.1708 46.7647 21.8624 24951 2
28.6995 48.2702 19.8687 2040 1
29.9871 45.2439 19.7982 41946 2
30.9344 47.6664 20.0746 2922 1
31.0496 46.1505 22.2341 2046 1
33.3898 44.5738 22.418 2157 2
35.5991 45.3713 19.6545 41070 2
32.8814 46.2392 20.3565 41115 1
34.6954 48.0623 20.4426 2092 1
33.3686 47.8161 22.8526 2095 2
38.5931 45.7475 20.7709 41124 2
38.226 48.1256 21.8603 2155 1
36.016 46.8648 21.9719 41990 1
37.0364 48.6046 19.0234 41077 2
40.353 47.9143 19.6697 1248 2
41.5866 45.4044 21.7406 1293 2
40.8349 48.2225 22.7332 1294 2
42.7916 46.385 19.4449 43750 1
43.9367 47.6538 21.6485 2169 2
44.0521 45.2673 22.9253 2162 1
40.8456 45.1891 18.9897 19416 1
44.6994 45.0791 20.5651 1257 1
47.2079 45.4263 19.9755 381 1
47.3218 47.8427 21.2004 41079 2
48.5703 45.706 22.4828 385 1
50.3868 47.8314 22.8387 394 1
50.3426 45.8497 20.6291 1305 2
52.9498 45.6259 20.3123 1345 1
53.0465 47.8507 21.7542 19428 2
54.6153 44.9466 22.3757 1306 2
55.3051 46.9918 19.7104 19426 2
56.2872 47.4173 22.6682 21280 2
57.6877 44.3381 22.5744 1303 2
60.8971 44.9712 20.5021 20338 2
59.4209 46.7547 22.4477 2172 2
57.934 45.8383 19.8975 20346 2
60.5375 48.3189 19.5536 19481 2
57.7251 48.4625 20.6257 19470 1
64.8281 45.5171 21.6511 25875 1
63.0587 46.685 19.2941 1274 1
62.5801 47.1544 21.9618 18534 2
65.6326 47.7508 19.9915 20344 2
66.7794 44.6662 20.1886 21192 2
67.4927 46.5389 22.6646 19439 2
69.2163 46.7422 20.2275 18476 2
70.2372 48.2747 22.6453 2268 2
71.7356 45.5184 21.7388 20313 2
71.9615 47.8112 19.5313 19445 2
74.5871 45.8655 20.0936 20354 2
73.5558 47.5954 22.1258 25871 1
74.9717 51.129 49.1411 24070 2
20.9383 49.8826 22.458 63632 2
20.9789 53.2719 19.7056 63634 2
19.0698 50.9539 20.3896 53552 2
17.8891 50.6761 22.9779 54461 1
21.9615 49.1526 19.2752 48669 2
23.417 48.6274 21.5342 63527 1
25.2084 50.802 19.7619 2084 2
22.6496 51.3098 20.4536 63235 1
26.6559 52.3753 21.7493 3022 1
30.2599 48.998 22.301 2973 2
27.1983 49.808 21.8853 2089 2
30.5792 51.7715 21.4108 41977 1
28.4109 51.3149 19.6951 40239 2
30.8208 49.9836 19.4152 40237 1
74.7813 35.3145 23.0558 19355 2
34.9722 50.6313 19.2346 41120 1
32.9222 50.5578 21.2259 41114 2
33.7838 52.9368 19.9096 41981 1
34.3944 53.0567 22.7675 41170 2
35.9671 49.9308 22.0109 378 2
38.9374 50.4632 21.0092 18505 2
36.4473 52.5434 20.6116 428 2
40.4191 52.3939 19.4252 25067 1
42.072 50.5308 20.9567 431 2
41.5648 53.0422 21.6912 19545 1
43.2529 52.4386 18.9771 435 2
43.7824 52.7715 21.843 1386 1
45.3168 50.2799 20.4062 383 2
46.2109 52.5191 19.0445 432 1
46.1931 52.4872 21.8606 438 1
48.2632 50.9718 20.5916 3092 2
48.8223 49.7594 22.7977 2240 1
50.0888 48.9875 20.6107 1351 1
52.3115 49.7221 19.7189 436 1
50.9006 52.4679 19.9573 1392 2
52.0854 50.888 22.2558 25001 2
55.3258 50.1813 21.0753 1268 2
53.7105 52.304 20.311 1352 1
54.867 52.7838 22.3957 19469 1
57.1363 52.2775 21.9062 1267 1
57.6844 49.8705 22.6757 1310 1
58.5517 50.8207 20.4955 3150 1
60.3941 49.4737 22.391 20342 2
61.0342 51.8981 20.3586 20390 2
57.9289 53.1183 19.7905 19517 1
59.0187 51.6686 23.6381 19379 1
65.7948 50.0306 21.8418 20397 1
63.1993 49.824 20.3748 19483 2
64.8471 52.6269 21.6628 19486 2
67.923 48.9939 21.0908 25042 1
67.2554 51.4882 19.595 19482 2
70.0995 49.6513 20.1815 20352 1
68.3031 51.5219 22.1954 19488 2
74.803 49.0601 20.1823 19492 1
71.1037 52.2214 20.462 19489 2
74.6133 52.1774 20.5518 18596 2
72.5916 49.9274 21.672 19532 2
19.3835 53.1153 22.4648 63500 2
22.4954 55.4042 20.4761 53557 1
20.7033 55.8449 22.5603 48680 2
19.6865 56.3199 19.3152 63468 2
18.0572 53.5251 19.325 48674 2
32.3341 38.1871 18.9931 1135 2
22.2299 52.8053 22.6456 63481 2
24.4126 53.6821 20.7401 63188 2
24.043 56.2928 22.4757 53648 2
24.3876 57.3773 19.4677 63184 1
28.6402 54.1956 20.8519 24954 2
26.963 55.8392 22.1235 5799 2
31.7686 74.8821 59.63 10808 1
31.8144 54.0344 21.5647 43152 2
33.8672 56.3021 22.8631 1382 2
34.8018 55.2947 19.8278 63057 2
39.1069 53.1168 21.4767 477 1
38.4407 54.4644 19.0121 1338 2
37.0717 55.1756 22.2044 376 2
39.1662 56.8301 20.8247 1385 2
43.0784 55.0923 21.9148 481 1
41.4259 54.9944 19.7821 429 2
43.4753 56.8865 19.7116 19607 1
45.0769 54.7768 19.9094 479 2
47.1256 56.6295 21.244 1393 1
48.1933 54.2094 20.585 1348 2
44.7731 57.3116 21.9809 1387 1
45.5007 54.9313 23.1374 1390 2
50.4963 53.4671 22.4376 19565 1
52.7766 54.114 21.6627 1399 1
50.8121 55.5634 20.7858 491 1
74.6246 26.8253 68.2312 29490 1
55.4864 54.5494 20.1963 20435 2
53.4319 57.0821 21.0073 1398 2
56.5927 54.8865 23.0807 25887 2
54.0633 55.4933 23.0223 19657 1
59.9307 54.3291 19.2394 18630 1
59.2265 53.5395 21.8961 25865 1
58.2735 55.8214 20.5296 1401 2
60.9198 55.2339 21.7195 19572 1
61.0564 57.0616 19.5838 19575 2
59.3129 56.9205 23.2016 444 2
17.8866 72.9376 29.3355 63004 2
62.6919 54.3209 19.6877 19570 2
63.2442 55.2358 22.1146 19520 1
64.0215 56.7124 19.9388 19577 1
65.6888 55.5707 21.4782 19585 1
68.27 54.4065 20.5259 19524 2
68.9135 57.314 19.9215 19586 2
66.7332 53.7779 23.0207 25888 1
68.2306 56.3562 22.986 19626 2
70.754 54.347 22.7109 20444 2
70.856 55.341 20.0815 19584 1
73.026 54.485 20.9973 19533 1
73.4158 56.6613 19.2928 19535 2
71.3209 57.2307 22.0526 20485 2
17.7454 60.9628 20.4099 53700 2
19.4037 58.3865 21.1777 63438 1
20.3334 60.5612 21.2699 63410 1
18.1556 59.7971 22.9542 63040 1
25.5483 58.1585 21.6216 63474 1
22.0913 58.1777 20.7182 63433 2
23.2208 61.7149 23.7044 54632 2
23.0103 60.942 20.4893 63588 2
36.4217 57.8075 21.2411 19499 2
38.6488 59.9995 20.2126 2288 2
39.5676 59.4196 22.7314 2286 1
41.6705 57.7176 22.1079 24937 2
41.2175 59.987 20.7335 526 1
43.7361 59.6909 20.9731 1440 2
42.0278 60.6689 23.7229 1439 2
45.864 58.1594 19.7613 1391 1
44.8201 61.5745 23.232 1442 2
48.4442 61.805 21.1911 1446 2
47.0059 59.264 22.4956 1445 2
46.1797 60.6419 20.1118 525 1
48.1052 59.4376 19.6561 1395 1
50.3097 60.381 19.2713 530 1
49.714 58.4066 21.4916 1447 2
52.2878 59.811 20.5966 19616 1
51.1727 61.3605 21.8711 25036 1
49.5556 60.4716 23.5206 1444 1
55.8968 57.7817 19.5688 20473 2
54.3572 59.5213 21.8561 2342 1
56.2644 60.4622 20.842 25862 1
53.6957 62.1287 21.1858 19660 2
56.312 57.7733 22.8829 448 2
55.7388 61.4547 23.2078 20518 1
58.4758 58.9321 20.8606 19618 2
59.7682 61.3153 19.8412 19620 1
61.1209 59.4516 20.6758 19621 1
60.0005 59.4586 23.0789 20476 1
58.4675 61.9061 22.1411 20521 2
62.2242 61.1791 22.4436 18729 2
62.2948 57.8429 22.2607 19574 2
63.6299 59.0596 20.3817 19573 1
64.9608 60.8819 21.067 1455 1
62.532 61.6933 19.6279 18728 2
66.1489 58.3679 21.3579 1420 2
67.3126 60.7991 19.3402 546 2
69.1217 59.7021 21.682 20487 2
66.9555 61.1215 22.6323 19625 1
69.7433 61.1951 19.0607 19631 1
71.183 61.3871 21.6118 19632 1
74.5586 57.9844 21.9973 19593 2
74.9049 58.9495 19.5327 19635 1
71.6312 59.0697 19.3329 25902 2
73.2053 60.0994 21.0876 18692 1
20.1066 62.4442 19.5449 63179 1
21.5078 62.7711 21.8224 63141 1
18.6914 63.627 21.5587 54635 2
18.1228 66.1164 22.895 54678 1
20.2184 66.1596 20.7327 48693 2
66.8348 75.0991 53.6121 27161 1
22.5647 64.1335 19.6032 63411 2
23.744 64.4895 21.8973 63144 2
39.8918 62.0829 21.9695 2328 2
42.702 62.1057 21.3487 572 1
41.1187 62.4651 19.0403 19546 2
43.952 64.868 21.1035 18753 2
45.6309 62.7408 21.0319 579 1
47.3383 64.8035 21.69 578 2
46.6784 64.5204 18.7887 577 2
50.361 64.178 21.0439 1487 2
52.7603 64.667 22.9416 2381 2
55.5565 62.685 19.1963 18770 1
56.2991 63.3551 21.1946 19665 1
54.2625 65.0173 20.1204 583 2
55.301 63.7816 23.5901 1490 1
57.6823 65.1824 22.393 2430 2
58.4431 64.0799 19.6141 1453 2
60.716 63.4253 20.8182 19622 1
60.5486 66.0591 20.8179 25882 2
60.0108 64.1954 23.1689 20522 1
64.8974 63.2127 19.5453 18779 2
65.437 64.2571 21.8926 19624 1
62.7008 63.9494 22.4897 19670 2
64.9471 62.3193 23.0789 25860 1
62.2484 64.5524 19.0405 19668 1
67.2231 62.9805 21.0251 19629 1
68.6191 65.5074 21.932 18736 2
69.7778 63.2611 20.4752 18742 1
69.7069 65.8724 19.2994 19628 2
69.0243 62.7163 22.7816 20533 1
44.1364 74.7239 65.4862 12493 1
72.4402 62.055 19.237 19589 1
74.7076 64.6896 19.8411 21801 1
72.199 64.5641 20.3288 1461 1
73.7906 62.6341 21.8191 19679 2
17.969 68.139 21.329 63142 1
20.1939 68.89 20.9956 63128 1
18.8409 70.6322 22.8728 54810 2
17.6661 33.9229 29.1822 48838 2
22.4731 69.3071 21.961 55682 1
22.3563 66.7379 22.3077 63140 1
23.2519 67.3794 19.7993 54813 2
23.3732 70.1116 19.3242 63127 1
46.723 67.5538 21.0828 1483 2
49.4648 66.7168 21.7341 19699 1
52.0922 66.9692 21.2677 632 2
49.7936 69.437 21.3801 1531 2
27.3809 18.2292 71.6726 10011 1
53.3423 69.783 21.6621 19711 2
56.8198 66.7647 19.6587 19710 2
54.2612 67.717 20.1584 1536 1
56.163 69.5061 20.5439 25821 2
55.1136 67.0377 22.6626 1533 2
61.3681 69.2627 21.2441 19667 2
58.5871 69.9723 22.2789 2432 1
58.5397 67.7544 21.5973 2425 1
59.407 68.8184 19.2457 3391 2
63.6322 66.0473 20.606 25901 1
64.3918 68.4956 20.9282 19672 2
66.3133 66.2712 19.9719 19676 2
65.3174 66.483 22.5712 20571 1
65.536 70.4379 19.3606 21779 1
67.9679 68.9324 19.3826 21739 2
67.1016 68.0845 21.881 25856 1
69.7741 68.3251 22.1729 25881 1
70.6874 68.4674 19.9382 21691 1
74.339 65.8784 22.188 21693 2
71.4516 66.5628 21.4675 2396 1
72.6995 69.1527 21.4583 2592 2
72.9958 67.1999 18.9688 43679 2
20.2 73.2015 21.6929 63116 2
18.7788 71.018 19.5213 54856 2
18.4909 73.9373 19.5969 63370 1
21.3803 70.9645 20.5436 54814 1
28.0521 18.5043 50.6003 6454 2
24.7813 70.4927 22.0581 63014 2
23.3821 73.0107 20.5105 3585 2
25.678 73.8554 22.2613 3587 2
22.3611 74.064 22.9729 3538 1
22.2666 71.6185 22.8561 63124 1
28.371 74.1356 23.2226 63178 1
56.7635 72.3153 22.53 22631 2
59.5079 71.7876 20.4614 21778 2
58.9437 74.0292 22.3216 12850 1
61.2891 73.6905 22.1215 25814 1
62.0189 73.0617 19.7497 21782 1
64.8827 73.2978 19.3027 20866 2
63.3057 71.763 21.7306 21788 2
57.8327 40.708 19.1625 19282 2
66.0041 73.778 22.2396 21781 2
74.7159 23.3625 57.7077 5143 1
69.7085 70.5613 21.0497 21740 1
66.3363 70.6964 21.9681 20824 2
67.6419 72.235 19.6431 21741 2
70.4269 73.7956 20.5237 21745 2
68.7393 72.4343 22.9146 21737 2
72.0037 71.628 21.5294 18741 1
74.29 70.6997 19.8302 21785 1
74.4006 73.1924 22.0328 20834 2
73.1365 72.8297 19.6119 43678 1
52.9653 75.1303 63.8489 12404 2
18.9011 21.739 23.5749 20053 1
21.6773 21.8687 25.4503 25064 1
20.0292 19.4778 24.7342 1881 2
18.9853 22.3981 26.1294 20051 2
23.2235 19.7051 25.1852 20009 2
24.5958 22.4646 25.5329 24990 2
25.4793 18.4511 26.8907 784 2
26.4757 21.0674 27.2105 2772 1
26.7652 20.2639 24.6608 2717 2
28.4717 19.0303 26.8599 1847 2
28.4799 22.1417 26.2542 2776 1
30.5171 20.8355 25.2103 1891 2
32.6531 19.2631 23.6869 23637 2
33.6168 20.6477 25.7984 987 1
34.5726 22.1725 24.118 2726 1
51.7705 62.436 18.8477 535 2
35.2917 19.6098 24.2171 20120 1
38.3481 19.315 24.3344 21910 2
38.8788 22.3388 24.245 3657 1
36.7636 21.2789 25.8952 1900 2
39.6889 22.566 26.902 3662 2
41.0446 20.5267 25.1209 22582 2
43.2052 22.4222 24.0839 22532 1
43.1469 22.3915 26.7837 2784 2
43.9921 20.428 25.0847 21871 1
46.2022 20.4784 25.9678 12875 1
48.465 21.9265 26.4481 2736 2
48.5117 19.6215 24.3874 23264 2
50.4473 21.5976 24.4472 21895 1
51.3408 18.2257 24.8166 3670 2
51.7944 21.8171 26.9035 22570 2
49.9282 19.5216 26.8469 22528 1
56.1036 22.1123 23.0593 23172 1
56.0977 19.6897 23.4527 23127 1
54.8299 20.1513 27.1035 22564 2
53.1177 20.9262 24.3521 2785 2
56.871 20.9978 25.23 23632 1
58.1023 18.5967 25.0058 11602 2
60.4325 19.6497 24.3726 20993 1
59.2875 21.2211 26.7473 20141 2
60.6919 22.1085 24.5724 20104 1
74.9169 26.4522 48.8313 28188 1
17.6788 29.4839 48.508 24623 2
62.7107 19.9458 23.1904 38322 2
62.5037 20.8175 26.3697 25850 2
64.748 18.6435 24.373 12897 1
65.0911 21.0518 25.2635 11550 2
64.3646 18.7526 26.9955 31025 1
67.5855 18.2887 23.95 30802 2
69.3752 19.3775 25.9869 1659 1
68.1257 21.5914 25.1744 12867 2
67.1139 19.4457 27.5025 30814 2
66.7509 22.2302 27.3075 12415 1
70.6795 21.2985 26.315 11516 1
70.8256 19.3106 23.782 22613 2
74.687 19.8556 27.1018 12412 1
73.2729 20.885 24.931 30808 2
71.76 19.1824 26.5229 12506 1
19.9246 26.3007 23.3429 1883 2
18.2005 24.3371 24.3811 1835 1
20.4737 23.6534 24.0749 1887 1
19.9063 25.1719 25.8592 1930 1
26.3505 23.642 23.219 1884 1
21.8225 26.4617 26.9085 2818 1
25.2837 26.2423 23.308 1025 2
22.8498 24.8917 24.7316 1886 2
26.9795 24.448 25.655 1889 2
28.4097 22.5079 23.8604 936 1
28.4717 26.0602 23.3143 1944 2
29.658 24.1674 24.8604 2771 1
28.3488 26.8423 26.4851 2769 2
31.0912 23.0837 23.1874 25026 1
31.2797 26.3325 25.1593 1946 2
32.1742 23.1939 25.5811 2775 2
34.7951 23.4493 26.8716 1948 2
33.8475 25.7075 25.4366 2778 1
38.877 26.4987 23.5253 1958 2
36.7291 24.1973 24.6143 25025 2
35.9717 26.6742 23.6774 1951 1
39.0646 26.0633 26.4858 4664 2
37.4466 23.9804 27.2202 5526 1
41.0824 24.2638 24.4978 23152 2
42.0489 25.4064 27.2077 3759 2
43.9333 25.3407 24.0531 2837 2
45.8211 22.8985 25.086 4627 2
45.0003 24.56 27.1369 21900 1
46.9788 26.0386 25.6941 2786 2
44.3509 26.779 26.4406 2006 1
48.9791 23.9196 24.2848 750 2
49.5576 26.6545 25.0879 2027 1
51.9098 24.1772 24.611 2024 2
50.0026 24.659 27.0537 1107 2
53.8732 23.1873 23.0143 40030 1
53 24.381 27.0507 21056 1
54.5065 25.9501 24.9907 40027 2
54.9398 22.9677 25.4521 30857 2
57.1507 24.521 26.6238 2028 1
57.6135 26.6376 24.5641 19234 2
60.5454 25.1459 23.7121 713 2
58.0229 23.3635 24.5122 20098 2
59.6407 25.5274 26.0028 20201 1
61.3972 23.3793 26.4271 20096 1
63.3988 23.3688 24.0392 20100 2
62.6979 25.8157 26.1904 19684 2
65.4979 25.7872 23.9739 25879 2
64.0069 23.3126 27.2889 25880 2
66.0087 23.5108 25.4417 12414 1
69.6056 23.8511 26.7193 20160 1
68.4384 24.6569 24.3741 19196 2
66.9985 24.9178 27.5889 12419 2
70.6886 22.5666 23.7271 22672 2
74.4358 25.847 25.5255 20163 2
72.3548 23.4086 26.5135 1651 2
73.3477 23.8001 23.8945 20157 1
71.4637 25.7766 24.7921 20113 2
20.1374 29.7614 23.1377 63546 2
19.8979 28.1233 25.9898 2763 2
19.0033 30.9749 26.1141 1936 2
21.5973 30.5824 25.2446 1929 1
17.6663 28.5798 23.5423 63548 1
23.1399 31.0379 23.0771 1018 2
24.8763 26.7821 26.4906 976 2
22.6275 28.0249 24.2651 1885 2
25.0511 30.1642 25.5352 1941 2
26.7301 28.0904 24.8168 25059 1
28.0714 29.6315 23.1154 1947 2
27.975 29.8556 26.6068 2817 2
29.5663 28.3668 24.6622 1949 1
30.1369 31.2594 24.6526 1950 2
32.4012 30.2371 23.0171 1033 1
33.6016 27.8485 23.3929 25028 2
31.6267 29.1333 25.0736 2872 1
34.0143 29.9226 24.9694 24982 1
33.3505 27.9277 26.4174 24984 1
32.3797 30.7414 27.1421 1993 2
36.0032 26.9094 26.2864 2828 2
36.9101 29.0966 24.2393 2831 2
39.1736 28.7328 25.7354 2873 1
40.3402 29.4928 23.3872 40975 2
43.2881 28.8657 27.1669 2789 1
41.8099 27.5332 25.0447 2069 2
43.9611 30.7866 25.5035 3713 1
41.2512 30.6192 26.313 2054 2
46.3196 30.796 23.7637 2942 1
45.0747 28.5639 24.4539 41849 2
45.8318 28.8634 27.4456 2984 2
48.13 29.3442 25.2942 2072 2
52.118 26.9123 27.1883 2898 2
51.8021 26.8937 24.5055 42770 1
50.2484 28.5593 23.3984 2026 1
50.6178 29.274 26.3837 3666 1
51.1453 31.0987 24.3882 25056 2
48.7933 27.5302 27.2998 2893 1
52.5013 29.9248 27.8912 1156 1
53.1896 29.2295 25.1523 23129 2
55.3588 27.9418 26.6864 2071 1
54.9917 30.3764 27.1816 2029 1
57.5688 29.2254 25.7207 20145 2
60.4734 28.1434 25.0655 25878 2
60.0609 31.0949 26.0462 19238 2
63.2541 28.4886 25.2937 20209 1
65.6063 27.4497 26.4559 20207 2
65.334 29.7859 24.1353 21002 2
63.0045 30.991 25.5262 20257 1
69.1796 26.8547 26.554 21054 2
67.5876 27.4636 24.517 20216 1
68.0084 29.8019 26.181 21044 2
70.339 28.4145 24.5843 20159 1
70.9288 29.0931 26.7242 20149 1
72.894 28.1805 24.551 18336 1
72.6077 30.4617 25.5236 19249 1
71.0628 31.1556 23.337 19296 1
62.9908 73.6873 73.7719 26536 1
63.2787 74.5531 21.0803 13527 1
21.4913 31.714 27.343 1982 1
18.1304 34.6128 23.5071 2808 1
20.2212 33.0039 24.4148 1934 2
21.4352 34.6812 27.1098 1977 2
19.3069 33.4395 27.1489 2811 1
24.3368 33.4886 23.1196 1983 1
22.4832 35.1276 23.9235 1981 2
23.3739 32.7576 25.6272 2863 2
25.9988 34.41 25.1308 2042 2
27.0758 31.9202 24.8892 1986 1
30.7595 33.6234 23.3158 2916 1
26.7526 32.5625 27.1048 63326 1
28.4085 33.0788 23.4859 1938 1
29.9371 32.2466 27.0339 3749 1
28.9958 34.6023 25.6516 1990 2
32.1262 33.5647 25.88 2908 2
34.5915 33.9638 24.701 3754 1
34.4182 32.7982 27.1433 21059 1
36.1147 32.6234 23.1399 1080 1
35.5619 31.8109 25.2672 4713 1
38.3656 31.6946 24.9355 41895 2
37.0913 34.5956 25.7134 2931 2
39.8183 34.5815 26.2956 284 2
41.1059 32.6631 23.8306 2004 2
41.78 35.2154 24.7827 2944 1
43.0295 33.2648 26.089 1149 2
44.5479 33.028 23.5376 43700 2
46.2658 31.9091 26.3045 24957 2
48.4478 31.7175 24.4748 2023 1
47.1278 33.6563 24.2268 1209 1
45.4417 34.5549 25.7059 21169 1
47.9536 34.7202 26.7944 2953 2
49.8305 34.0698 24.462 2117 2
52.9227 31.7342 26.427 2902 1
49.602 31.8006 26.9531 1160 2
52.7689 33.7519 24.2896 20248 2
51.6688 34.4284 27.0361 21177 2
55.2088 31.6539 24.8444 19326 2
55.2555 34.7548 24.818 2123 1
55.1466 33.3898 27.3543 21045 2
57.3288 33.6315 23.3854 19235 1
57.951 33.7652 25.9149 20255 2
57.768 31.4876 24.3917 18373 1
57.1648 31.5917 27.0854 21089 1
60.2538 35.1518 24.5738 20155 2
60.6546 33.5531 26.7538 25877 1
63.8923 32.3385 23.5601 20210 1
63.1536 34.1688 25.478 20256 2
65.2219 32.5092 25.9965 19344 1
65.9064 33.7875 24.0225 18372 1
62.5603 31.9158 27.5778 25846 1
67.4471 32.013 24.8164 20153 1
69.759 34.4288 26.2834 20211 1
67.9036 34.8338 24.8213 19347 1
70.3857 31.7766 25.8822 1129 2
75.0857 71.7373 36.2491 23541 2
74.6334 32.1018 24.5169 19346 2
71.8365 34.0233 24.4436 19350 2
73.1277 32.7645 26.5826 21104 1
19.6803 36.2327 25.0866 63540 2
19.825 39.061 23.7418 63318 1
22.0763 38.3659 25.2741 2911 2
19.8265 40.3601 26.2034 63307 1
23.6604 36.0278 25.9151 1072 1
24.7859 37.4745 23.9424 1985 2
25.8914 37.21 27.1394 2047 2
28.7406 37.0032 26.9005 2914 1
27.5729 36.7717 24.5075 2041 1
27.7503 39.3329 25.2502 2918 2
30.2 37.6654 24.8894 2870 2
32.3769 35.6194 23.5973 1997 2
34.4634 36.4027 26.2623 1996 2
32.5627 38.6698 26.5565 3847 1
33.199 38.7348 24.1158 20156 2
31.8019 36.3028 26.4826 3807 1
37.494 38.8193 23.1019 2061 2
35.7259 39.0417 25.1298 2052 1
35.6343 36.3981 23.4554 1995 2
37.501 37.4336 26.3691 20236 2
39.776 36.8545 24.2737 41994 2
42.9377 37.4685 23.5354 2066 1
43.5168 36.5611 26.2077 4669 2
41.561 38.9322 25.1389 3037 2
44.4139 38.8454 25.0977 2111 1
45.4265 36.199 23.5127 2995 2
46.0512 39.7443 26.6544 2068 1
46.7013 38.8262 24.48 25017 1
48.1348 36.8116 24.4968 2070 1
46.2962 37.0995 26.2427 2954 1
48.8343 38.9553 26.4557 2114 2
50.7963 36.8589 25.2905 3047 2
52.1354 39.4073 25.3876 20296 1
53.7598 35.8946 26.3751 2997 1
53.4339 37.0672 23.8086 25053 2
54.3898 38.3157 26.0792 3920 1
56.2762 36.5159 27.2046 20341 2
56.2406 37.9528 24.3707 25006 1
56.8375 39.8299 26.5506 20254 2
57.4675 35.9768 24.182 19331 1
59.3134 37.6843 23.3517 18376 1
61.235 36.0185 26.9272 20202 1
57.9493 39.6825 24.0032 18378 1
58.9398 37.6124 25.9411 19284 2