ITEM: TIMESTEP    
10000     
ITEM: NUMBER OF ATOMS  
77888     
ITEM: BOX BOUNDS pp pp pp
17.607 132.393    
18.0782 131.922    
18.2727 131.727    
ITEM: ATOMS x y z id type
20.2855 18.6553 21.3136 1839 2
18.9363 21.2753 20.2223 72779 2
20.1131 18.4 18.558 20011 1
21.9396 20.3949 19.2239 72830 2
21.7286 21.5232 22.2073 977 2
23.1849 18.9811 21.6185 23170 1
25.7064 19.3917 21.1624 22628 1
24.3256 21.1761 20.3385 72824 1
24.8165 19.0402 18.4977 1021 2
27.2233 21.5945 20.864 1846 2
29.9664 20.6455 21.4492 20062 2
29.4341 20.986 18.9471 2719 1
27.7593 18.6258 19.4846 22548 2
17.4188 64.0463 23.8912 55588 1
32.3738 19.7905 19.5633 24988 2
32.8666 21.4298 21.947 43709 1
35.293 19.6615 20.9814 1851 2
32.6916 18.7423 22.5346 23637 2
37.3985 20.5989 18.6115 22537 2
37.3358 22.0276 21.363 1899 2
39.561 22.0871 19.598 2790 1
39.4622 18.3706 18.3546 1904 1
39.8655 19.6483 20.9025 1854 2
42.2 21.5281 19.622 40934 2
42.2245 18.3104 18.9301 23153 2
43.0146 19.4381 21.8426 23128 2
40.9643 21.7433 22.1688 3665 1
44.8564 19.8276 19.3062 1099 2
47.7893 20.0928 20.3706 40834 2
52.7636 18.4591 19.4147 2787 2
49.7433 21.7169 19.0205 40893 1
50.9783 20.183 21.316 22529 2
59.8173 53.8783 18.4389 18630 1
17.7197 26.3747 32.7816 2858 2
54.2515 21.2885 20.8154 23176 2
56.9332 20.1925 21.4664 13500 1
55.4446 18.8491 19.9201 21944 1
56.2534 22.1271 22.6518 23172 1
53.7099 18.6725 22.1018 12513 1
58.214 19.7661 18.77 38509 2
59.4492 21.453 21.7716 31285 2
61.2508 20.3095 19.68 31298 2
59.1356 18.3707 21.19 19184 2
64.78 21.2827 19.953 21892 2
64.3819 20.9979 22.5538 20998 1
63.437 18.98 18.8414 31021 1
64.504 18.3982 21.1649 30999 2
66.7043 18.6996 19.1339 31023 2
68.3567 20.988 20.5607 19245 2
69.3446 18.5148 18.3339 30315 1
69.087 18.1552 20.8135 38366 1
74.4221 20.4462 19.1234 31289 2
73.1985 19.005 21.8007 21403 2
71.2905 19.8713 20.1424 30996 2
73.3102 22.1685 21.5933 12413 2
20.6532 23.8413 21.0781 25062 1
19.08 25.2707 19.4456 970 1
21.6025 25.156 19.062 52493 1
17.8101 23.9307 21.5639 1928 2
24.3518 23.4185 21.8345 25024 2
25.4683 23.2677 19.204 926 1
23.0159 23.1346 19.59 1942 1
22.3978 25.682 21.3984 1888 1
24.3493 25.7527 19.2997 25061 2
26.657 24.7664 20.6937 1945 1
29.0955 23.8887 21.1998 1895 1
29.6043 26.235 19.4177 40920 2
28.2197 23.4452 18.534 1943 2
25.3089 74.9805 51.1754 26263 2
31.3304 23.1655 19.7479 989 2
33.1241 25.9124 20.392 1035 2
34.5427 22.5128 20.0659 40928 2
31.052 25.3494 22.0444 25060 1
35.1658 26.3974 18.6936 40922 1
33.7467 24.0946 22.817 25027 2
36.4749 25.0446 20.7649 2729 2
39.1837 26.2179 20.033 2836 1
39.3882 23.8442 21.5898 3770 2
43.9016 74.7745 53.1982 9001 2
40.9538 24.4832 19.3037 1956 1
42.3261 23.7855 21.4204 2782 1
43.4189 24.0059 19.3639 41801 1
42.7646 26.3645 18.7012 1897 1
41.8621 26.71 21.3023 41842 2
45.0415 22.4305 21.2098 43705 2
48.1672 23.4128 20.6126 40989 2
45.3962 25.671 20.0712 40939 2
46.3879 24.6399 22.34 1153 1
48.5936 26.0872 19.1566 23205 2
45.8873 22.9216 18.3487 38643 2
51.457 23.1086 21.4437 1110 2
50.2622 25.7757 21.8336 2020 2
51.1427 24.2282 18.6091 19180 2
57.0051 22.4687 19.9164 38629 2
53.739 26.2607 22.0138 20144 2
53.711 24.309 20.2388 23642 1
54.0981 23.5633 22.4607 40030 1
56.5393 24.8383 21.6508 18330 2
54.9639 26.5077 18.9863 19382 2
36.2139 18.3682 25.4194 3659 1
59.4665 23.977 21.1194 20148 1
59.0044 25.6289 19.201 19227 1
59.1691 26.3805 21.5505 246 1
61.716 25.4033 20.1907 19229 2
59.7813 23.0126 18.6546 199 2
62.3117 22.5495 21.4173 19285 2
62.7574 23.1176 18.794 30803 1
64.613 24.7402 20.7583 20106 2
65.5672 26.6779 19.1376 18337 1
66.7155 22.9084 22.0815 31002 2
69.8195 24.0034 20.1518 1065 2
67.4342 25.5136 21.1439 19241 1
68.4821 26.8993 18.9661 30998 2
66.7956 24.1086 18.704 31294 2
71.9577 22.3668 19.1491 12457 1
71.1386 25.959 18.9751 30290 1
72.9297 24.3872 19.9237 43162 1
71.7907 24.7637 22.118 19299 1
44.3359 49.9283 18.1717 384 2
20.3563 27.4446 20.1612 1933 2
21.334 30.4543 19.5698 1071 2
18.0678 29.9384 19.5694 63536 2
62.5766 73.7505 74.9603 26536 1
22.8937 28.1261 20.9652 63545 1
24.4559 29.3323 19.3102 1023 2
24.9824 28.9687 22.1765 40916 1
22.8386 30.7202 22.3972 1018 2
26.8057 27.8849 20.3731 39954 2
29.9134 29.165 18.8533 983 1
27.8804 30.4658 19.5952 40965 1
29.9974 31.3614 21.0974 1940 2
30.5519 28.2175 21.5524 41845 2
32.4822 29.8518 19.572 41885 2
34.9423 28.4901 20.6906 40926 2
32.6971 29.8981 22.1378 1033 1
35.1432 30.7674 22.2629 2010 1
37.3604 29.7162 19.4493 2000 1
37.6694 27.9402 21.039 1083 1
37.4338 27.1096 18.5176 2779 1
40.0809 28.7205 19.5441 1907 2
40.8387 31.0153 20.8153 42701 1
42.7807 29.4328 19.2581 2001 2
42.6285 29.8884 22.3055 43703 2
47.5625 27.0555 22.2753 40935 2
44.3829 27.9666 20.7735 40985 1
45.4012 30.6293 20.6904 41032 2
46.7909 28.3838 19.8138 41894 1
47.9388 29.7808 21.8767 1954 1
48.346 30.7127 19.0363 41898 2
49.466 28.299 20.3649 42717 1
50.3305 30.2723 21.164 42715 1
51.7986 26.9813 19.5881 1165 2
51.8401 28.4976 21.8119 40996 1
51.9974 30.488 19.1682 1163 2
53.9617 28.6458 20.4343 1105 1
57.05 27.8349 20.6068 19231 2
55.4855 30.1835 18.794 248 2
53.2922 30.8094 22.0847 1164 2
59.3857 29.7415 22.1976 200 2
60.2052 28.2357 19.6478 2792 2
58.1249 30.1071 19.4198 1109 1
61.3948 30.9964 19.7225 1112 2
61.1816 27.4522 21.9835 19243 1
63.6101 26.9371 22.9217 20151 2
63.3842 27.9963 19.9591 19242 2
64.5966 30.7087 20.9475 19289 2
62.612 29.8701 22.6768 20214 2
69.9198 27.006 21.7758 19186 2
66.4724 28.149 21.3578 12515 2
67.3464 31.0769 20.4134 20162 1
68.8745 29.228 20.2174 43818 1
75.1269 38.8333 37.0679 21204 2
73.0147 26.9981 20.8974 1076 2
71.2825 29.9051 21.0698 19294 1
74.0244 29.9354 21.7741 19300 2
72.8876 30.9408 19.1675 19297 1
74.0467 28.8915 19.2791 43804 1
71.3167 28.6723 18.7629 18339 2
18.93 32.4357 21.1798 1017 2
21.4402 32.9328 21.9358 1980 1
20.2558 33.4807 18.5859 1060 2
20.5128 35.0514 20.8804 63543 1
17.6585 34.4273 19.5996 1121 1
25.6895 31.6215 21.2069 20152 2
23.2118 33.1052 19.9088 63681 2
23.4198 35.4522 21.3556 1069 1
26.0816 34.8175 21.7342 1075 2
25.7606 33.1251 19.0841 1070 1
24.5612 35.2962 19.2159 43702 1
23.9217 33.2715 22.6544 1983 1
27.962 32.999 20.228 1989 1
27.2352 35.5303 19.0914 41015 2
30.4414 34.277 19.8883 1029 2
33.0565 32.5392 21.9573 24974 2
32.769 32.8736 19.0425 984 1
30.6427 31.6944 18.4785 41022 1
35.0748 31.4978 19.5802 41893 2
37.8333 31.6106 21.295 1199 2
35.7518 34.3512 20.5073 41937 2
38.1294 33.9513 19.6103 19202 1
38.2386 34.6197 22.5902 20283 2
40.1771 33.3243 20.7271 2002 1
43.0028 32.4158 19.697 41848 2
42.2791 35.0285 21.3885 2990 2
43.5654 35.2178 18.994 1159 1
40.7491 34.7723 18.5511 41024 2
40.2218 31.7895 18.356 40978 2
45.8124 34.0377 20.4375 2067 2
47.5793 35.2364 22.2404 236 1
48.1488 32.4101 21.6607 237 2
48.7722 34.668 20.0991 41035 1
51.0524 32.9366 21.0741 2022 2
49.939 33.0757 18.6512 291 1
52.9954 35.1354 21.2939 1208 1
51.2757 35.3207 19.13 1155 2
56.5046 31.3246 21.6129 2077 2
54.5429 33.4951 22.3201 249 1
56.7185 34.2092 20.7468 19334 1
54.1232 33.0562 19.6567 20251 2
58.8864 35.0732 22.1716 2121 2
59.1902 32.5262 20.5081 19233 1
60.9705 34.2817 20.1111 43165 1
58.7627 35.2905 19.418 1119 1
57.2882 32.7225 18.6413 241 2
61.383 32.5958 22.2763 20212 2
65.7146 32.0773 18.7509 19288 1
63.0214 35.8 19.9595 19236 1
65.2406 34.6513 19.6019 20215 1
63.7438 33.662 21.4135 19341 1
66.0783 33.0359 21.1753 19339 1
66.8671 31.2555 22.7216 19293 1
69.8182 31.4294 19.177 19246 2
67.8518 33.8212 19.1307 19349 2
69.0147 32.9254 21.8397 19295 2
66.9974 35.775 21.6666 19291 2
70.5744 34.4709 19.7183 25899 1
72.2268 32.5245 21.186 19301 2
73.2321 35.3243 21.3655 19352 2
19.2518 36.2672 18.9041 63542 1
18.3287 36.7165 21.7814 63539 2
17.9365 38.4191 19.2281 63669 1
21.5584 37.5836 21.8095 1979 2
19.6471 40.0457 20.685 63537 2
21.9801 36.5362 18.8679 1988 2
24.5264 37.8848 20.1426 2036 2
22.0369 39.1896 19.5069 2045 1
23.2543 39.5884 22.043 2039 1
29.1761 35.7497 22.3539 1074 2
29.502 37.3216 19.6572 1028 2
27.0093 38.8162 18.5383 41016 2
27.1963 37.9364 21.5789 1122 2
29.8469 39.4182 22.0012 25055 2
33.1306 35.4829 20.3168 2829 2
31.6699 37.6678 21.1057 1079 1
32.1231 39.9946 20.3718 41941 1
34.4785 38.3682 20.8043 1998 2
34.5544 39.5356 18.5288 41071 1
74.8917 66.2641 22.4714 21693 2
37.2376 36.978 20.1602 41068 2
39.5653 39.747 18.8398 42706 1
39.7879 38.8988 21.4822 41984 2
39.7659 36.0011 20.7311 40988 1
42.2593 37.675 20.0864 1204 2
42.2287 39.771 22.1804 25047 1
55.602 18.0726 32.8333 20408 1
44.4499 38.6547 22.0803 41031 1
45.2355 37.3727 19.7541 286 2
47.5535 37.7417 21.3873 330 2
47.8456 39.708 18.6223 41038 2
48.1851 36.6892 18.4387 40108 2
50.2703 36.1497 22.0086 1162 2
49.8635 38.2046 20.0511 290 1
52.5464 37.9904 20.3053 18473 2
51.1567 39.315 22.7785 2074 2
55.7845 35.7208 22.3123 19276 1
54.8601 36.0712 19.5495 20297 2
55.0746 37.9542 21.5531 388 1
54.9747 39.755 19.5534 18427 2
74.7298 71.515 73.8049 15179 2
60.5973 37.2909 20.7 19286 2
57.4861 37.7625 20.6512 18430 2
60.7696 39.7193 19 18379 1
59.7334 40.053 21.4904 20206 2
64.161 36.2972 22.3699 19281 2
65.38 36.9764 20.0289 163 1
63.2622 38.475 19.4259 18433 2
65.9334 39.0037 21.8584 20305 2
62.8777 39.3308 22.2197 19338 2
68.8371 36.7935 19.0323 18437 2
69.1101 39.8192 19.6724 18439 2
68.4264 38.0096 21.4888 19340 1
70.1713 35.8831 21.9998 19345 2
17.7272 53.2122 26.4631 63047 2
72.8652 36.7266 18.963 18386 1
71.1899 37.9424 20.6123 20353 1
73.0383 39.8254 19.5484 20361 2
73.1773 38.702 22.3746 19402 2
20.3075 43.9131 18.9808 48570 2
18.1418 42.301 20.5093 63648 1
20.4743 43.1663 21.9257 63528 2
25.9989 18.1187 39.9739 23624 2
18.8147 41.3637 18.2921 63678 1
25.1571 18.3312 35.1678 663 2
22.0158 41.368 20.9313 21093 1
24.5689 40.8745 19.8043 41066 2
23.2673 43.8699 20.6351 63650 2
25.8238 42.7085 21.4951 2969 1
63.1791 33.2339 18.6924 19232 2
30.0218 40.2772 18.6444 41883 2
27.5838 41.0533 20.4265 43701 2
27.9652 43.7585 20.9396 2049 1
30.4459 42.4886 20.9406 2090 2
32.187 43.6499 19.1895 24950 1
34.1691 42.0086 20.5092 2051 2
32.7218 44.5068 21.9374 2157 2
36.864 40.2359 19.8613 41072 2
37.9105 40.9873 22.235 1202 1
36.8553 43.1296 18.9605 42033 1
36.3277 43.6557 22.0855 41939 2
39.3786 42.3388 20.0749 3133 2
46.5421 18.2322 36.8196 6416 2
41.6829 40.7638 20.0094 1200 1
41.668 43.3259 18.8905 1249 1
43.5006 42.5452 21.098 1251 2
44.0634 40.0004 19.9597 25049 1
46.4222 40.6968 21.6231 2119 2
46.5625 43.8187 21.9974 1253 2
45.9006 42.3413 18.9132 1254 2
48.7872 42.8682 19.7409 340 2
48.9733 40.2864 21.0894 2113 1
50.8908 40.5162 19.3079 289 2
51.7287 43.1971 20.9763 25040 2
52.8105 40.8134 21.1635 20299 1
17.5145 27.7015 73.6821 62060 1
53.3498 42.1219 18.6457 1307 1
54.4999 42.3837 21.3426 39218 1
55.7658 43.309 19.0644 1350 2
57.1388 44.3836 21.9521 1303 2
56.8863 41.301 21.4437 19337 2
60.505 42.0785 19.0022 18479 1
59.9961 43.092 21.9256 20298 2
58.3651 43.0293 19.811 1255 1
59.5829 68.121 18.5972 3391 2
62.5737 43.9847 21.7914 20304 1
62.2947 41.5977 20.4825 18435 1
63.7789 43.7051 19.3964 19386 2
64.4828 40.7371 19.8869 19384 1
64.994 42.2999 22.0512 21284 2
68.5366 40.6711 21.9594 19389 1
66.9367 41.392 20.0628 19396 1
69.708 43.0382 20.2019 19436 2
66.806 44.1082 19.836 21192 2
71.1878 40.8028 20.9993 2141 1
72.7401 43.1995 19.5266 18488 2
73.8118 41.735 22.2428 19447 2
20.1888 46.5394 18.4312 53549 1
18.0116 45.0393 20.9027 63282 2
21.5419 46.4432 21.0398 53468 2
18.4983 47.9897 20.4255 63274 2
25.9634 44.9765 19.7758 41064 2
24.7904 47.5237 20.4573 2085 2
22.0436 48.5478 18.8366 48669 2
23.0281 48.6467 21.8239 63527 1
30.275 47.966 19.3406 2922 1
27.7613 46.5102 21.9661 24951 2
27.7011 47.5008 19.4864 2040 1
29.6503 45.0221 19.1544 41946 2
30.6044 46.3625 21.4718 2046 1
34.7345 45.102 19.4824 41070 2
32.1989 46.205 19.6034 41115 1
34.1333 47.7086 20.0153 2092 1
32.9518 47.7009 22.4317 2095 2
36.4015 47.8104 18.4319 41077 2
37.9247 45.4591 20.2108 41124 2
37.6135 47.8748 21.2351 2155 1
39.5607 47.705 19.0438 1248 2
35.5847 46.5216 21.6511 41990 1
40.9963 45.0706 20.9693 1293 2
40.2484 47.9036 21.9656 1294 2
43.3997 47.6397 20.5835 2169 2
43.6728 45.0838 21.793 2162 1
42.7835 45.4989 19.0206 43750 1
74.7157 32.1835 44.6537 27293 2
45.0974 45.1434 19.9267 1257 1
47.534 45.1474 19.4808 381 1
47.104 47.5796 20.6562 41079 2
49.0635 45.0203 22.0565 385 1
49.9307 47.634 21.9525 394 1
50.2194 45.6801 19.8265 1305 2
50.1329 48.4907 19.7982 1351 1
52.7268 47.4331 20.8498 19428 2
52.9424 45.1048 19.5278 1345 1
54.1372 44.7634 21.947 1306 2
55.0506 46.5181 18.9113 19426 2
56.1189 47.1012 21.6769 21280 2
60.884 45.0607 19.7151 20338 2
59.1678 46.6229 22.1681 2172 2
57.8669 45.7991 19.3379 20346 2
60.4642 48.2054 18.9753 19481 2
58.0411 48.3657 20.3738 19470 1
65.0186 44.8898 21.9339 25875 1
62.9793 46.7057 18.757 1274 1
62.1836 46.885 21.6525 18534 2
65.1376 46.9771 20.0379 20344 2
67.4033 48.512 20.4658 25042 1
67.613 46.1316 22.0102 19439 2
68.8646 46.5011 19.2914 18476 2
70.1382 48.1402 22.3958 2268 2
71.2713 45.3439 21.3986 20313 2
71.7587 47.5275 18.9406 19445 2
74.2374 45.9326 19.8404 20354 2
18.4832 51.9002 20.4529 63500 2
20.5163 49.798 21.5241 63632 2
21.0628 51.7375 18.7705 63634 2
21.7212 52.7217 21.7996 63481 2
24.9584 50.2026 18.634 2084 2
22.961 50.5308 20.384 63235 1
24.4792 52.9398 20.3147 63188 2
29.9562 49.0149 21.7436 2973 2
26.9863 49.9848 21.0473 2089 2
28.0129 53.0141 19.7189 24954 2
29.6254 50.8806 19.9322 41977 1
26.5447 52.7872 22.0188 3022 1
28.9251 51.7608 22.8031 2195 2
34.8403 49.9256 18.5266 41120 1
32.3896 50.17 20.2046 41114 2
33.4699 52.6585 19.2653 41981 1
34.1462 53.0071 22.194 41170 2
35.1655 49.7635 21.5646 378 2
38.2063 50.3341 20.6118 18505 2
36.0018 52.1922 19.9695 428 2
38.8967 52.9756 21.1191 477 1
39.4679 51.9863 18.9226 25067 1
41.5046 50.2976 19.8247 431 2
41.4611 52.4578 21.5674 19545 1
43.6214 52.8917 19.6841 435 2
43.9059 52.3679 22.2233 1386 1
47.3592 49.9169 18.6502 336 1
45.6564 50.496 20.8149 383 2
46.0554 52.2967 18.8061 432 1
32.7541 18.3516 29.237 21878 1
48.7946 50.7578 20.8249 3092 2
52.2971 49.6084 19.122 436 1
50.8796 52.3339 19.0242 1392 2
51.8298 50.5993 21.6768 25001 2
50.1404 52.9269 22.0041 19565 1
55.125 49.7103 20.3075 1268 2
53.5971 51.8879 19.7915 1352 1
54.5584 52.2313 21.9905 19469 1
56.945 51.9214 21.6057 1267 1
55.5276 51.569 18.4678 19473 1
57.8346 50.6407 19.7267 3150 1
60.1087 49.6772 22.1439 20342 2
60.5531 51.6874 19.9712 20390 2
57.9274 53.0766 19.6354 19517 1
58.8489 53.3762 21.9008 25865 1
65.2441 49.4428 21.5376 20397 1
62.9961 49.609 20.1187 19483 2
64.293 52.1551 21.1835 19486 2
61.563 52.6029 22.7447 19476 2
66.3549 50.9429 19.1798 19482 2
69.6608 49.3729 20.1539 20352 1
68.1036 51.0863 21.833 19488 2
69.4105 52.1822 18.9907 19489 2
72.8855 47.6789 21.5392 25871 1
74.1287 49.0134 19.8635 19492 1
74.3599 52.1057 20.3971 18596 2
74.1496 49.6304 22.2054 18592 1
71.7353 50.5497 21.0802 19532 2
40.1905 18.0364 51.9989 8258 2
19.9221 54.1527 20.0232 53557 1
20.4459 56.2498 21.7094 48680 2
19.1323 56.851 18.6945 63468 2
22.4842 57.0418 19.0221 63465 1
22.1922 54.3477 19.3543 63478 1
23.4469 55.6374 21.4947 53648 2
26.458 55.3507 20.9282 5799 2
31.1727 53.0465 21.1226 43152 2
33.3863 55.7439 22.541 1382 2
34.7312 55.0114 19.5003 63057 2
37.8198 54.3037 18.7886 1338 2
36.7935 54.7404 21.8775 376 2
38.9058 56.6626 20.4699 1385 2
36.0509 57.5337 20.6319 19499 2
42.7166 54.545 21.7849 481 1
40.8318 54.4725 19.6706 429 2
43.0683 56.1042 19.6682 19607 1
41.7414 57.2853 21.5951 24937 2
40.8937 57.6514 18.2622 476 2
46.0674 53.1004 21.3661 438 1
45.4291 55.1664 19.5876 479 2
47.3711 56.1455 20.8072 1393 1
44.7564 56.9292 21.3592 1387 1
48.2783 53.6832 19.9058 1348 2
24.3221 74.9578 46.6855 7208 2
52.5536 53.4628 21.1919 1399 1
50.6538 55.0387 20.1625 491 1
49.7901 57.3862 21.0731 1447 2
55.555 54.011 20.1537 20435 2
53.0902 56.3446 20.7635 1398 2
56.0297 57.1993 19.8533 20473 2
53.0141 54.3521 18.4678 1396 2
39.4951 37.2142 18.4354 41943 2
58.5357 55.6664 20.339 1401 2
60.8156 55.0237 21.4451 19572 1
60.95 56.7035 18.9669 19575 2
62.4605 53.9614 19.5182 19570 2
17.7592 27.1555 18.4301 63688 1
63.1527 54.7411 22.1018 19520 1
63.799 56.4948 19.9126 19577 1
65.4036 55.0248 21.4397 19585 1
62.217 57.5831 21.8846 19574 2
67.7949 53.9898 20.525 19524 2
68.7933 56.9736 19.6546 19586 2
70.6518 53.2459 22.2041 20444 2
70.3599 54.8821 20.1676 19584 1
66.2202 57.5987 21.1211 1420 2
72.7445 54.3074 21.2203 19533 1
72.9822 56.7578 19.2087 19535 2
71.1272 56.5549 21.8637 20485 2
74.6448 54.711 19.2693 19531 1
72.942 33.5507 18.2802 43988 2
17.935 60.5889 19.9528 53700 2
19.6062 58.5971 20.8749 63438 1
20.4659 60.9014 21.0272 63410 1
20.5688 59.5912 18.4765 63600 2
24.8687 57.4476 19.9896 63474 1
22.5615 58.8403 20.9393 63433 2
22.6717 61.7294 19.3298 63588 2
23.5378 59.2648 18.3856 63184 1
39.5765 58.941 22.2822 2286 1
38.6933 59.6283 19.8433 2288 2
41.3491 59.7598 20.1654 526 1
43.8289 58.8988 19.2096 1440 2
42.7801 61.6978 20.7373 572 1
46.3808 58.0909 19.8195 1391 1
44.7828 59.9159 21.7496 1442 2
47.9994 60.2973 20.6772 1446 2
46.056 60.615 18.8376 525 1
52.1125 58.8315 20.0298 19616 1
49.7202 59.1293 18.6859 530 1
50.5872 60.52 20.896 25036 1
21.6807 74.6657 49.6376 8106 2
54.23 58.9168 21.4807 2342 1
53.2862 61.4347 21.4114 19660 2
56.2297 60.165 20.3179 25862 1
54.1496 59.3303 18.4761 533 2
55.0633 61.7813 18.9503 18770 1
58.8634 58.8099 20.2785 19618 2
60.2034 61.0863 19.6142 19620 1
58.3994 61.3966 21.9754 20521 2
61.7563 60.7848 22.0029 18729 2
61.6708 59.216 19.9295 19621 1
63.0096 61.3359 18.663 18728 2
64.1729 59.1577 20.1971 19573 1
45.8717 17.9222 25.3795 22534 1
64.2466 61.565 21.0662 1455 1
18.6961 74.9086 49.7664 8983 1
66.6698 60.5632 20.4814 546 2
69.3507 61.6197 19.3989 19631 1
69.1266 59.2602 21.844 20487 2
32.1468 17.9839 48.3533 24603 1
74.1028 57.6903 22.0536 19593 2
70.6194 61.4407 21.4612 19632 1
74.5122 58.9732 19.7902 19635 1
71.1197 59.1853 19.4987 25902 2
72.9878 60.5572 21.1301 18692 1
71.783 59.1248 22.6007 21396 1
19.8629 62.4798 19.0264 63179 1
20.7865 63.4027 21.1741 63141 1
18.0411 63.5373 21.0984 54635 2
21.8047 64.848 18.872 63411 2
43.2774 41.6637 18.3696 41081 1
22.7031 61.8471 22.6641 54632 2
23.091 64.8576 21.3416 63144 2
40.6308 61.8847 18.7292 19546 2
39.9878 61.8815 21.9081 2328 2
44.1561 64.2201 20.6878 18753 2
45.6831 62.1612 20.6532 579 1
46.1799 64.1353 22.6097 18756 1
48.0287 63.5063 20.8535 578 2
46.9815 66.6415 21.2273 1483 2
60.4014 74.9224 74.4838 15125 1
50.883 63.329 20.2399 1487 2
49.703 65.7313 21.1134 19699 1
49.1632 65.6916 18.6539 631 2
52.1879 66.3119 20.3546 632 2
52.5387 64.0929 22.794 2381 2
66.4378 29.2632 18.4177 30833 2
56.6663 62.7838 20.5376 19665 1
54.2464 64.1885 19.8972 583 2
56.9187 65.8425 19.6276 19710 2
55.4509 63.7497 22.3937 1490 1
58.2082 64.8858 22.436 2430 2
59.2187 63.6971 19.7922 1453 2
61.1438 65.8106 20.8851 25882 2
61.6024 62.9552 20.1524 19622 1
62.7399 64.2628 18.4286 19668 1
65.2561 63.3922 19.3801 18779 2
63.8584 65.6487 20.7175 25901 1
65.9565 64.0674 21.8365 19624 1
68.1555 63.9762 18.2103 18737 2
68.0005 62.976 20.8671 19629 1
68.4444 65.4866 22.0613 18736 2
70.2896 63.6848 20.4451 18742 1
71.9972 62.1316 19.4493 19589 1
72.4027 65.1594 19.8943 1461 1
74.0491 63.193 21.1483 19679 2
38.0907 24.0571 18.4328 43667 2
71.0205 63.9036 18.1401 18735 1
20.6412 69.6556 18.5943 63371 1
19.7307 66.2993 20.6358 48693 2
19.5759 68.9974 20.5941 63128 1
21.6915 69.5795 22.3499 55682 1
18.2842 70.7279 22.4311 54810 2
52.3071 21.4649 18.3958 38365 2
21.9046 66.9566 22.2055 63140 1
22.4769 68.1373 19.7799 54813 2
23.2456 70.5929 19.0437 63127 1
24.2454 70.779 21.6332 63014 2
49.9466 68.5487 21.026 1531 2
53.2063 68.9546 21.4339 19711 2
54.6755 67.3564 19.6565 1536 1
56.7277 69.0308 20.4248 25821 2
54.9919 66.5013 22.2399 1533 2
33.8946 18.3003 51.8124 24661 1
60.918 68.7683 21.4242 19667 2
58.5823 70.0359 22.2818 2432 1
58.7337 67.3162 21.1277 2425 1
62.7096 70.3576 18.7077 20865 2
62.7632 67.1899 18.5079 19666 2
64.0748 68.5185 20.9638 19672 2
65.533 69.3947 18.7592 21779 1
66.3001 66.3792 19.4712 19676 2
69.9682 66.4124 19.1611 19628 2
68.0902 68.9512 18.8684 21739 2
67.0343 67.982 21.5024 25856 1
69.4798 67.9559 21.4178 25881 1
69.2523 70.6624 21.0344 21740 1
69.332 71.0832 18.5579 21743 1
71.8158 67.3453 21.2299 2396 1
70.9053 69.2652 19.868 21691 1
74.0184 69.1668 21.4806 2592 2
73.2107 67.8627 18.9135 43679 2
21.0116 70.958 20.5301 54814 1
19.9144 73.2804 21.1644 63116 2
18.5115 71.3167 19.2011 54856 2
18.0989 74.0214 19.0094 63370 1
27.7961 18.4666 50.4666 6454 2
22.169 74.2191 22.7275 3538 1
22.8887 73.0629 20.0914 3585 2
24.9767 74.3509 21.8822 3587 2
27.5423 74.2503 22.3542 63178 1
60.3519 71.7255 20.6234 21778 2
59.3162 73.7557 22.3198 12850 1
65.8364 73.9735 21.6158 21781 2
65.0437 72.2616 18.8367 20866 2
63.4574 71.9363 21.7204 21788 2
62.4862 73.32 19.549 21782 1
66.3514 74.6767 18.8152 20827 1
66.61 70.7518 21.0247 20824 2
68.4001 73.1822 20.0663 21741 2
70.5559 72.0026 22.362 18741 1
35.3613 17.8933 44.8843 20436 1
72.371 71.5668 20.5891 21785 1
73.0723 73.3492 18.7592 43678 1
71.0601 74.2677 20.6464 21745 2
74.0979 73.8927 21.7232 20834 2
18.4112 21.5037 22.9829 20053 1
21.2929 21.9623 24.995 25064 1
19.7081 19.4623 24.196 1881 2
20.6642 19.802 27.1528 2716 2
18.6832 22.1667 25.7966 20051 2
24.4254 20.9205 22.8471 1848 1
22.8484 19.5072 24.6265 20009 2
24.0285 22.2576 25.2909 24990 2
25.4182 18.5179 26.2214 784 2
26.0706 21.192 26.86 2772 1
25.1748 18.2798 23.2784 23224 1
26.8123 20.8395 23.9679 2717 2
28.4606 19.5017 26.481 1847 2
28.5058 22.2624 25.8936 2776 1
30.4337 19.9915 24.4272 1891 2
29.1598 22.5302 23.4285 936 1
32.9653 20.8382 24.4375 987 1
35.0892 19.5782 23.7938 20120 1
35.0365 21.9106 23.0081 2726 1
37.9142 19.3592 23.4846 21910 2
38.8187 22.0022 23.7166 3657 1
36.4184 21.3343 25.6007 1900 2
38.2941 19.5918 26.8393 3663 2
74.6203 53.864 44.7266 5908 1
40.8474 20.3317 24.4793 22582 2
43.1959 22.0751 23.2669 22532 1
43.7068 19.654 24.4631 21871 1
43.068 22.0573 26.0802 2784 2
48.1833 21.3523 22.7072 1908 1
22.6084 75.1172 55.6443 9871 2
46.172 19.6686 22.8423 22576 2
45.8198 20.4146 25.5037 12875 1
48.4311 21.4021 25.749 2736 2
49.3147 18.9833 23.7809 23264 2
50.5862 21.6364 23.9611 21895 1
52.186 18.8137 24.6198 3670 2
51.6697 21.7521 26.4809 22570 2
50.0865 19.2926 26.3103 22528 1
55.5243 19.8478 23.3261 23127 1
54.7986 20.2311 26.1677 22564 2
53.2803 21.3513 23.5468 2785 2
57.3164 20.9892 24.6977 23632 1
56.7387 22.0901 27.1003 12459 1
61.9562 19.5593 22.7687 38322 2
60.297 18.607 26.1951 22527 2
59.6413 20.5733 24.1643 20993 1
61.3277 22.1774 23.8913 20104 1
59.3581 21.5709 26.4688 20141 2
62.572 20.8516 25.8699 25850 2
64.561 18.9246 23.8638 12897 1
65.5452 21.0263 24.94 11550 2
64.3857 18.7296 26.5859 31025 1
70.5978 22.1721 22.4321 22672 2
67.0434 19.2218 22.667 30802 2
68.3976 21.6378 24.4528 12867 2
69.9926 20.2016 25.9011 11516 1
67.3348 19.323 26.8655 30814 2
68.4436 18.0499 24.765 1659 1
70.3686 19.2093 23.182 22613 2
73.0606 20.9318 24.4141 30808 2
72.033 19.0564 26.1517 12506 1
74.3848 20.0969 26.6103 12412 1
19.9115 26.2894 23.0548 1883 2
18.0822 24.4762 24.2715 1835 1
19.9914 23.288 23.3719 1887 1
20.0479 24.7111 25.4629 1930 1
73.5709 18.2276 52.305 5180 2
24.9233 26.2696 22.4873 1025 2
22.4634 24.5624 24.0414 1886 2
24.5741 26.7238 25.8939 976 2
26.0548 24.4622 24.9938 1889 2
26.9778 23.6568 22.7566 1884 1
28.2221 26.2821 22.5514 1944 2
28.637 24.4565 24.778 2771 1
30.8162 26.2486 24.7567 1946 2
31.3501 23.0413 22.6169 25026 1
31.3163 23.0617 25.3537 2775 2
34.3109 23.088 25.6071 1948 2
33.305 25.438 25.4064 2778 1
39.4046 22.4513 26.3184 3662 2
39.0084 26.4266 22.7349 1958 2
36.9369 24.1491 23.6692 25025 2
36.0106 26.4968 22.7482 1951 1
38.906 25.4894 25.58 4664 2
37.0284 24.0328 26.3338 5526 1
35.8318 26.7852 25.5318 2828 2
41.1261 23.8659 24.0146 23152 2
41.9375 25.3025 26.5244 3759 2
43.8724 25.1809 23.3108 2837 2
44.197 26.6007 25.7946 2006 1
45.882 22.6131 24.1724 4627 2
44.7137 24.2764 26.0541 21900 1
46.8205 25.9977 24.95 2786 2
47.3021 23.78 26.6118 4629 1
48.694 23.8311 23.8257 750 2
49.5195 26.6922 24.556 2027 1
52.0406 24.2286 24.126 2024 2
50.0002 24.6056 26.4842 1107 2
53.0915 24.278 26.4434 21056 1
54.5903 26.2659 24.7318 40027 2
55.1634 23.214 25.0509 30857 2
57.2131 24.8439 25.5789 2028 1
61.1419 24.9305 23.163 713 2
58.5254 23.3472 23.744 20098 2
59.6035 25.4325 25.4331 20201 1
61.2991 23.5989 25.7664 20096 1
57.721 26.7262 23.6005 19234 2
64.1301 23.4355 26.8257 25880 2
63.9679 23.4911 23.7891 20100 2
66.278 25.9001 23.8659 25879 2
62.8897 25.9503 25.6753 19684 2
66.6571 23.6431 25.0651 12414 1
68.7291 23.8182 26.5357 20160 1
69.1897 24.6043 23.5801 19196 2
68.8612 26.5809 26.081 21054 2
62.2294 17.9892 42.4837 8445 1
74.8232 22.7451 26.0708 12481 1
71.142 22.9777 25.7147 1651 2
73.34 23.605 24.0845 20157 1
71.9518 25.9209 24.7246 20113 2
20.2204 27.4643 25.9036 2763 2
19.9582 29.5937 22.4999 63546 2
17.9617 28.5312 23.6985 63548 1
19.217 30.0182 25.7555 1936 2
21.7493 29.9582 24.8076 1929 1
22.6008 27.6933 23.8446 1885 2
24.7938 29.9014 24.9665 1941 2
26.4497 28.0069 24.0542 25059 1
27.6646 29.8035 22.59 1947 2
27.82 26.956 25.9484 2769 2
27.5744 30.1207 25.968 2817 2
29.3533 28.4995 24.2377 1949 1
30.7091 29.01 26.7536 2864 2
29.8271 31.2741 24.1055 1950 2
33.4366 27.1252 23.0815 25028 2
31.6702 28.9695 24.1352 2872 1
34.1347 29.4169 24.2021 24982 1
33.1379 28.0195 26.0577 24984 1
32.6008 31.1206 25.5061 1993 2
36.7423 29.035 23.4523 2831 2
38.7919 28.3173 25.0016 2873 1
38.1253 29.68 26.9423 2862 1
35.5319 29.7859 26.8074 3752 2
39.7423 29.429 22.7434 40975 2
42.9254 28.6386 26.5523 2789 1
41.6924 27.4533 24.3604 2069 2
43.7279 30.2713 24.845 3713 1
40.8414 30.4579 25.5538 2054 2
45.838 30.6901 23.3159 2942 1
44.7838 28.0282 23.3712 41849 2
45.6882 28.601 26.6922 2984 2
47.7615 29.23 24.7643 2072 2
52.0278 26.8081 26.7406 2898 2
48.542 27.3346 26.743 2893 1
51.8776 26.9026 23.8536 42770 1
49.7813 28.3942 22.8643 2026 1
50.3224 28.718 25.589 3666 1
50.589 30.944 23.6965 25056 2
52.9489 29.1707 24.7064 23129 2
55.4738 28.6397 22.9265 1973 2
55.3608 28.9292 25.7083 2071 1
57.5064 27.417 26.2906 3827 2
57.499 30.2694 24.6972 20145 2
60.4684 28.0146 24.7229 25878 2
59.6499 29.3498 26.8056 2856 1
60.818 31.2494 24.8788 19238 2
63.1824 28.8093 25.3046 20209 1
65.4037 27.5916 26.4918 20207 2
65.5399 29.4693 23.951 21002 2
69.2542 30.0794 23.0652 20158 2
67.8945 27.9171 23.8101 20216 1
70.2827 28.0437 24.5171 20159 1
67.9736 29.5791 26.1458 21044 2
70.496 28.9115 26.5193 20149 1
72.069 28.3884 22.9379 18336 1
74.3408 27.6711 23.4009 12863 1
71.7664 31.0324 23.2425 19296 1
72.6399 29.6116 24.9624 19249 1
19.0791 34.4359 22.9554 2808 1
17.7863 31.3557 23.4117 53355 1
20.2736 32.1997 24.3251 1934 2
20.7305 34.3406 26.5353 1977 2
21.8568 34.9541 23.5141 1981 2
18.6948 32.5375 26.6337 2811 1
26.4417 32.076 23.7683 1986 1
23.3169 32.5211 25.1073 2863 2
25.5369 34.6732 24.6326 2042 2
26.0069 32.4288 26.0577 63326 1
30.5944 33.571 22.8661 2916 1
28.1799 32.8558 22.5273 1938 1
29.8199 32.0845 26.5954 3749 1
28.4757 34.0316 25.0302 1990 2
32.3758 35.6697 23.0614 1997 2
31.5344 34.0971 25.4943 2908 2
34.0394 33.7758 24.2212 3754 1
34.2521 32.9613 26.5185 21059 1
35.4061 31.5604 24.5868 4713 1
36.0069 33.0911 22.8563 1080 1
38.0973 31.5572 24.521 41895 2
36.6687 34.2741 25.2723 2931 2
39.754 34.3237 25.546 284 2
40.7626 32.5247 23.1575 2004 2
42.1587 35.0237 23.9632 2944 1
42.8873 32.8729 25.7149 1149 2
43.9109 32.6983 22.8662 43700 2
45.8351 31.6653 25.8385 24957 2
47.9418 31.7617 24.2023 2023 1
46.387 33.5596 23.5458 1209 1
45.0026 34.4547 25.3054 21169 1
47.5315 35.008 26.6872 2953 2
49.1358 34.1263 24.3083 2117 2
52.1538 31.8954 25.7741 2902 1
49.4439 31.4248 26.5054 1160 2
52.2025 33.8412 23.7224 20248 2
50.8063 34.1667 26.7448 21177 2
56.5884 33.3609 26.2346 20255 2
54.7082 31.7804 24.5004 19326 2
54.8789 34.7667 24.3968 2123 1
56.7858 33.6011 23.2731 19235 1
57.1834 35.8871 24.4925 19331 1
61.6968 35.1978 22.3241 20213 1
58.6996 32.3342 23.2193 18373 1
58.8246 32.0569 26.4616 21089 1
59.5315 34.338 24.868 20155 2
61.016 33.1962 27.0162 25877 1
64.452 32.186 23.2976 20210 1
63.5226 31.1922 25.2061 20257 1
62.801 34.1303 24.824 20256 2
65.3713 33.6919 25.9744 20302 1
65.2412 35.6061 24.695 20208 1
66.227 31.6866 25.1258 19344 1
68.4253 32.4635 24.61 20153 1
66.4376 33.7327 23.5077 18372 1
67.3129 35.1878 25.9688 20265 1
69.5969 34.3484 26.1775 20211 1
68.5731 34.6787 23.9284 19347 1
70.5857 31.5035 25.5893 1129 2
74.8694 34.8364 23.586 19355 2
74.3266 31.9863 24.1087 19346 2
71.3532 33.7663 23.9595 19350 2
73.079 32.6321 26.3425 21104 1
72.6209 35.2825 26.2367 21150 2
19.3629 36.4964 24.7772 63540 2
19.5194 38.7442 23.3172 63318 1
19.5206 39.8265 25.7318 63307 1
21.9481 38.6055 24.7939 2911 2
23.2503 35.9442 25.3709 1072 1
24.5885 37.2955 23.4572 1985 2
25.5533 37.2879 26.5304 2047 2
28.3848 36.8129 26.5312 2914 1
27.2047 36.5908 24.1572 2041 1
27.6917 39.2436 25.0747 2918 2
30.2843 36.9654 24.8175 2870 2
34.2347 36.1682 26.0021 1996 2
32.4488 38.2546 26.4498 3847 1
32.8106 38.5197 23.6101 20156 2
35.159 38.5666 24.7258 2052 1
35.2987 36.0573 23.0532 1995 2
37.0853 38.4626 22.8072 2061 2
37.4402 37.2538 25.6232 20236 2
42.5252 37.4499 23.024 2066 1
43.0458 36.3314 25.8952 4669 2
39.9495 36.7115 23.5638 41994 2
43.9336 38.4415 24.6042 2111 1
41.278 39.1956 24.9159 3037 2
40.2904 37.1022 26.874 3811 2
44.9333 36.0896 22.8824 2995 2
45.635 39.5981 26.1535 2068 1
46.2515 38.8807 23.8525 25017 1
47.853 36.8094 24.0901 2070 1
45.8074 36.8978 25.4713 2954 1
48.0647 38.2403 26.3976 2114 2
48.5625 39.3838 23.5783 1213 1
50.5651 36.9945 24.9947 3047 2
52.4026 39.6671 25.0657 20296 1
52.9513 35.6597 25.7052 2997 1
53.2968 37.0359 23.3635 25053 2
54.4716 38.574 25.5952 3920 1
55.5232 36.3481 26.6982 20341 2
56.0547 37.8793 23.9765 25006 1
56.7919 40.0632 25.9271 20254 2
58.9793 37.6384 23.0707 18376 1
61.0125 36.036 26.4702 20202 1
57.6093 39.6133 23.4094 18378 1
58.6254 37.4489 25.9085 19284 2
61.4574 37.2373 24.1025 20259 2
64.4163 38.0852 24.325 20260 1
63.6115 36.8321 26.6635 19336 2
62.8765 39.6178 25.2363 21147 1