ITEM: TIMESTEP    
190000     
ITEM: NUMBER OF ATOMS  
77888     
ITEM: BOX BOUNDS pp pp pp
17.607 132.393    
18.0782 131.922    
28.5867 121.413    
ITEM: ATOMS x y z id type
19.9066 20.6826 29.3303 72779 2
19.0393 19.5714 31.3465 1881 2
19.3352 22.2841 32.088 1887 1
21.7434 22.1459 30.4301 977 2
20.7045 20.5918 33.146 25064 1
22.1193 19.0336 31.2116 1839 2
25.058 19.9121 31.8665 22628 1
24.3838 20.6164 29.6853 926 1
23.0535 20.99 32.4152 1848 1
25.3466 18.2861 30.1108 23170 1
29.7722 19.7939 31.1657 20062 2
27.104 20.9665 30.2523 1846 2
27.7703 18.3692 29.5375 72824 1
27.3446 18.2989 32.0066 1845 2
29.8047 22.1739 30.2247 1895 1
34.2866 18.0418 71.6868 3580 1
34.1564 20.457 31.1419 43709 1
34.39 21.8998 29.1518 19151 1
34.5508 18.6775 29.1233 24988 2
31.8276 21.2778 32.1205 25026 1
32.0896 20.497 29.4342 25063 2
32.7883 19.0689 33.0146 23637 2
36.9116 20.1641 30.0445 1851 2
39.364 21.2349 30.3208 22537 2
38.0231 21.5838 32.7968 1899 2
35.7053 20.2846 32.9898 20120 1
38.0558 18.663 32.2789 22536 2
39.4863 18.7926 30.0372 1904 1
40.7454 18.6113 32.5777 1854 2
43.74 18.6273 32.5013 23128 2
42.0901 20.3467 30.8078 21871 1
43.3266 21.574 32.5565 3665 1
40.6218 21.2301 32.5765 3657 1
52.866 75.0018 70.7153 14323 2
44.754 19.2782 30.0359 1099 2
47.591 20.9523 30.1323 40834 2
46.9672 18.3123 32.0632 22576 2
45.6868 21.0533 32.424 4627 2
48.128 21.9183 32.6419 1908 1
44.903 22.432 30.2578 43705 2
49.849 18.6319 29.7498 38521 2
50.083 21.4401 29.6542 40893 1
49.6917 19.9825 32.2507 22529 2
52.6238 20.7881 29.9992 38365 2
50.8937 22.2443 31.9935 1110 2
52.6336 20.0477 32.4137 22574 1
55.5103 18.8196 29.6548 21944 1
54.9239 20.2336 31.3515 12513 1
55.023 21.5285 29.0355 39988 2
56.5533 21.9917 32.1441 13500 1
54.4686 17.9757 31.8034 22565 1
56.6313 19.363 33.4117 11602 2
60.0551 22.0427 29.3205 31298 2
60.4868 18.6051 32.1116 19184 2
59.6777 22.2446 32.2107 31285 2
59.9738 18.9684 29.6776 31004 1
57.6621 20.3299 30.5187 38509 2
61.7899 20.4103 30.6824 31021 1
64.0676 21.3906 31.6169 21892 2
63.8678 19.7546 29.4498 30371 1
63.9568 18.4088 32.178 30999 2
17.6818 33.4041 48.1475 5549 2
62.8141 22.2455 29.1701 30803 1
66.2776 19.0256 30.3781 31023 2
67.1712 21.3569 30.7935 31293 1
69.1268 19.8565 30.27 30997 1
70.1998 18.4497 32.0422 38366 1
66.2635 20.4682 32.7102 20998 1
68.0227 19.0137 32.1724 30809 1
69.267 21.2905 32.7334 19245 2
69.837 22.3891 30.2144 31019 2
74.7943 19.9679 30.5039 31289 2
71.7353 20.7215 30.9376 30996 2
72.7786 18.6453 32.0556 21403 2
73.2909 22.081 32.5689 12413 2
24.7638 74.7881 72.1625 13347 2
18.6334 23.2974 29.4304 1928 2
20.57 24.896 31.0765 1885 2
19.1891 24.3198 33.3004 1930 1
20.6082 26.6575 29.2115 970 1
21.9758 23.0787 33.249 1886 2
24.5098 22.8308 30.9138 25024 2
23.3345 24.56 29.3208 25062 1
23.0968 24.8236 31.717 1888 1
25.8959 25.2059 31.3615 1945 1
25.149 26.6042 29.3364 25061 2
26.6838 23.1035 32.168 1884 1
27.905 24.0992 30.1189 1943 2
30.4821 25.0912 31.431 40920 2
27.954 25.1632 33.2175 1889 2
29.5101 22.7834 32.5793 1944 2
43.0057 75.0451 69.3743 28811 2
32.5746 23.0778 30.4832 989 2
33.7471 25.0279 32.5099 1035 2
32.267 26.2877 29.9644 43811 2
35.6519 22.5649 31.4367 25027 2
34.8612 24.7025 29.8721 40922 1
31.9304 23.3589 33.0247 25060 1
36.9986 24.8024 32.1352 2729 2
37.0127 23.2345 29.4917 40928 2
38.0224 26.0514 29.9163 43667 2
39.5856 24.0108 28.936 2790 1
39.4295 23.7872 31.5623 3770 2
42.2339 23.1545 30.8234 40934 2
40.8815 25.6169 30.2783 1956 1
42.3029 25.5682 32.2844 2782 1
43.7254 25.2394 30.2879 41801 1
39.6556 26.2961 32.6271 1958 2
44.061 23.7601 32.562 22532 1
46.2725 25.397 29.607 40939 2
47.7924 25.7447 32.2275 1153 1
45.1801 26.1346 32.1425 2837 2
46.4185 23.6598 31.9199 21900 1
48.7413 23.832 30.6855 40989 2
51.7041 23.8147 29.6034 19180 2
50.5283 26.0961 31.2614 2020 2
71.1281 18.2712 29.437 30343 2
21.6608 74.9149 31.2891 63116 2
53.9551 22.9221 31.5746 23176 2
53.3324 25.7153 31.2093 23642 1
54.7642 24.5564 29.3507 40025 2
55.7315 25.3118 31.7902 40030 1
57.2019 23.434 30.0362 38629 2
57.5651 24.1928 32.4536 23172 1
57.483 26.5219 30.1757 18330 2
59.3785 24.6779 31.1592 20148 1
60.9164 26.2079 29.6734 199 2
61.7313 25.9912 33.2144 713 2
61.9065 23.783 30.9781 19285 2
64.8532 23.6703 30.7643 18327 1
63.8946 26.3274 30.6073 19229 2
64.1894 24.7245 33.0198 20106 2
66.3392 25.6339 31.15 19241 1
68.7136 24.6909 31.7859 1065 2
67.2807 23.8723 29.4549 31294 2
70.1976 24.7135 28.8598 44061 2
66.7109 23.0351 32.6433 31002 2
73.2769 25.2933 29.2171 44079 1
72.2317 23.4134 30.054 12457 1
71.3608 25.61 30.9241 30290 1
73.5884 25.0162 31.4959 43162 1
74.7241 22.7015 29.9265 39972 2
71.2761 23.4564 32.8691 22672 2
50.4102 18.1315 67.6816 16332 2
18.99 26.9652 31.1018 63548 1
19.416 29.0002 29.5693 1933 2
21.3637 30.5928 31.0481 1071 2
18.1794 29.536 32.0236 1936 2
21.2927 27.9367 32.0807 63546 2
22.7218 26.6066 30.2684 52493 1
21.8648 28.9648 28.7979 975 2
24.0222 26.8697 32.2036 63545 1
23.8343 29.1944 30.702 1023 2
26.0433 30.3133 31.7438 40916 1
26.4112 27.848 32.5883 1025 2
28.4042 27.0215 30.4604 39954 2
26.33 28.7414 29.8552 986 1
28.4579 29.638 30.2167 19240 1
30.5707 28.3149 30.4677 983 1
29.6511 27.3054 32.7319 1949 1
28.7693 29.6882 32.6917 1947 2
33.0869 29.1696 29.6568 41885 2
32.3103 27.4092 32.2025 41845 2
32.8642 29.881 32.2279 1033 1
35.1335 27.0904 30.9502 40926 2
35.4897 29.9351 31.8941 41893 2
37.7827 28.4798 30.5658 2779 1
38.103 30.9176 31.328 2010 1
37.0423 27.2097 32.7715 1083 1
38.829 30.2309 29.0636 1907 2
35.7528 29.4438 29.1749 2000 1
38.875 29.0306 33.0693 2831 2
40.1329 28.0545 30.569 2836 1
42.6424 27.6799 30.1706 41842 2
43.4588 30.698 30.585 43703 2
40.8196 30.2674 31.198 40975 2
42.3314 28.0786 32.9527 2069 2
45.2185 27.9402 30.3035 40985 1
46.4526 30.1451 29.7209 41032 2
48.1631 27.7019 30.7437 40935 2
44.6469 29.431 32.3517 41849 2
47.6181 30.4094 32.4982 2072 2
17.6883 64.3296 71.7644 13280 2
49.345 30.0088 30.3942 1954 1
50.7893 28.5082 29.2382 42717 1
50.5979 28.7222 31.8378 2027 1
51.8814 30.8112 30.0998 1163 2
52.5393 28.0077 30.8117 40996 1
52.7216 29.9285 32.8202 1164 2
54.9056 27.9636 31.8446 20144 2
54.7264 30.1413 30.331 248 2
55.234 27.4465 28.8566 19382 2
57.4351 29.1616 31.731 19231 2
57.2515 29.1026 29.0806 19227 1
59.4405 28.6906 29.994 246 1
60.2026 30.348 32.047 200 2
59.0022 31.0408 29.6337 1109 1
59.3526 27.1185 32.371 19234 2
61.7954 30.0535 29.7232 2792 2
61.8132 28.0887 31.4193 19243 1
64.1871 29.1532 30.0058 19242 2
63.3585 30.7166 32.1004 20214 2
64.3256 27.9477 32.988 20151 2
66.0334 27.1551 29.0864 18337 1
66.4921 28.1588 31.7077 12515 2
68.6893 26.8637 30.0339 30998 2
69.7113 27.5999 32.739 19186 2
67.2183 29.6096 29.7838 30833 2
70.1206 29.3125 30.729 43818 1
68.514 30.356 32.499 20158 2
74.4215 27.7795 30.8547 30993 2
72.7645 29.8616 30.7193 43804 1
71.5224 27.5763 29.2762 18339 2
72.2564 27.8327 32.1181 18336 1
71.2977 29.8478 32.8395 19294 1
74.0535 29.7295 33.1512 19300 2
18.228 34.8552 30.5741 1017 2
21.1796 33.3306 30.0269 1060 2
18.3828 31.805 30.5864 63536 2
19.8079 33.1732 32.6383 1934 2
33.2675 18.2563 49.3947 20360 1
23.8987 31.882 32.1481 63681 2
23.8398 34.2659 30.6459 43702 1
22.3474 33.8759 32.4458 1069 1
23.6864 31.7493 29.3728 72814 2
26.0234 33.0946 31.1173 1070 1
24.7594 34.0449 33.0137 1983 1
26.4351 31.3061 29.3087 40917 2
28.3428 31.8075 31.1804 40965 1
28.192 34.0716 29.7548 1031 2
30.388 33.9024 31.384 2916 1
29.2357 31.7032 28.9257 979 1
27.8031 34.1453 32.4492 1989 1
26.7485 31.9266 33.4684 20152 2
30.9235 31.1285 30.8899 1940 2
34.8854 34.0376 31.0176 24974 2
33.7014 31.5314 30.8072 984 1
32.4407 33.6998 29.4464 1029 2
32.5464 32.9245 32.6967 1950 2
35.2698 32.3159 32.9637 21059 1
36.4771 31.8653 29.4813 1077 2
39.1299 33.2214 30.4785 1199 2
37.1764 32.9739 32.0648 1080 1
38.2311 35.2803 32.1511 20283 2
36.5394 34.9557 29.5913 41937 2
39.7026 32.2821 33.3247 41895 2
40.9799 31.7181 29.1488 42701 1
42.1207 33.3704 31.3869 2004 2
43.378 32.597 28.9861 41848 2
40.4935 35.5701 30.4286 2002 1
43.6975 31.8471 33.2981 3713 1
45.0543 34.7527 30.5991 2990 2
48.2139 32.0358 30.6901 2942 1
48.0365 34.7253 30.3602 2067 2
45.4985 32.3977 31.6527 43700 2
48.2472 33.2202 32.5652 2023 1
46.7867 34.9462 32.6358 1209 1
75.0855 62.7271 74.2616 15922 1
50.0796 31.535 32.6548 42715 1
50.5154 33.5313 30.6359 237 2
52.2249 32.5573 32.3939 2902 1
52.3255 35.3964 31.7418 2022 2
49.0052 35.7994 32.6618 236 1
74.8467 25.0749 39.5929 19731 2
56.3925 34.4122 29.621 19334 1
53.7731 33.0844 30.1958 20251 2
55.5165 33.9705 31.9018 1208 1
57.0022 31.8855 31.124 2077 2
54.4473 31.8558 32.5187 249 1
61.124 18.4374 58.21 17259 2
58.9725 33.7502 29.003 241 2
59.4644 33.0015 31.4455 19233 1
57.7392 34.6785 31.5557 19235 1
61.6055 32.9135 29.8743 1112 2
60.742 35.4662 31.4201 2121 2
61.6234 32.8072 33.0191 20212 2
63.2723 35.4365 31.0867 43165 1
64.0555 31.7756 29.3742 18380 1
63.7137 33.225 31.3817 19341 1
64.7824 34.3766 29.2333 19232 2
66.1352 31.7631 31.1682 19289 2
65.9626 34.7985 32.2017 20256 2
68.9961 31.4336 29.902 20162 1
69.7556 33.9305 29.7817 19293 1
67.4588 33.8496 29.7109 20215 1
68.5557 33.0462 31.7512 19347 1
73.7138 32.2059 29.5918 19297 1
71.1686 31.9057 31.1321 19246 2
71.8426 33.8332 29.2108 18438 1
71.0793 34.5053 32.3099 19295 2
74.2958 33.0351 32.0584 19301 2
73.6531 34.8635 30.7018 43988 2
72.6829 31.8114 33.3416 19296 1
72.6443 74.1341 71.2229 29842 2
20.6003 35.5786 31.7892 63543 1
19.3327 37.3488 30.1885 63542 1
18.4185 39.2637 31.6309 63318 1
20.8112 38.2172 32.3434 1979 2
19.5105 39.7355 29.8187 63529 1
21.789 39.0399 29.9471 2045 1
22.0616 36.3322 30.0089 1988 2
24.2246 38.3647 30.703 2036 2
24.5673 36.2436 29.2925 2034 1
23.0569 36.4488 32.6732 1981 2
26.0479 35.9438 31.5238 1075 2
26.0634 39.7241 29.2929 41016 2
29.0616 36.3037 31.4389 1074 2
27.2272 36.8839 29.0106 41015 2
29.4106 38.9341 29.8077 1028 2
27.4347 38.5505 31.9563 1122 2
30.3357 35.8602 29.2539 1027 2
30.5257 38.6896 32.6311 2870 2
33.9247 38.8186 29.4758 2829 2
31.7317 37.7387 30.1851 1079 1
34.0236 36.0258 29.7162 41936 1
32.3618 35.9332 31.901 1997 2
33.1457 39.0323 32.2752 20156 2
35.5443 36.9816 31.7009 1995 2
38.3706 37.0939 30.0443 41068 2
37.3216 39.207 32.1074 2061 2
36.6754 39.5641 29.519 41072 2
39.8055 38.111 32.5203 41994 2
42.797 35.9563 29.2107 41024 2
42.3434 36.3012 31.7016 2944 1
41.118 37.9458 30.0582 40988 1
43.1909 38.4032 31.1627 2066 1
43.64 38.9921 28.4679 1204 2
41.7688 40.2421 32.3454 3037 2
45.1314 36.9884 29.5412 1159 1
45.5888 39.0637 30.5174 41031 1
47.5172 37.2123 30.5581 330 2
44.9911 36.8722 32.3156 2995 2
46.8876 39.1954 32.5023 25017 1
44.5858 39.7468 32.7273 2111 1
50.1877 36.7652 30.9214 41035 1
52.2201 38.3906 31.3027 1162 2
49.1844 38.4489 32.2678 1213 1
50.38 38.7467 28.8177 40108 2
32.3971 48.0533 28.7446 2092 1
53.7715 39.4969 29.0254 18473 2
56.0216 38.5347 29.4995 41085 1
55.4501 36.4669 31.3812 20297 2
54.6919 39.1929 31.8277 388 1
53.7315 36.5985 29.42 44000 2
57.4305 38.9011 31.7686 18430 2
61.5656 35.8624 28.7626 1111 2
58.3773 36.7 29.652 288 2
60.0356 37.9246 31.0356 18376 1
58.6952 39.8021 29.1126 19282 2
58.3943 36.658 32.528 19276 1
61.6381 38.7532 29.3607 18381 2
62.5831 37.8755 32.0621 19286 2
63.8579 37.1351 29.5121 1119 1
64.8661 37.4767 31.8019 20213 1
64.3543 39.4212 30.6136 44031 1
65.9348 39.455 32.9084 20260 1
68.492 35.3733 31.2385 19339 1
66.6201 36.9717 29.8713 19281 2
69.0153 38.0543 30.7292 19290 1
68.3876 39.4052 32.6647 163 1
67.2262 37.2517 32.395 20208 1
69.6844 36.839 33.1623 19291 2
70.8116 36.2805 29.9412 19349 2
71.055 38.7412 29.2807 18383 1
71.1504 38.7734 32.007 18437 2
72.3695 36.7105 32.3332 25899 1
74.2532 38.6706 32.4494 19352 2
73.352 37.6635 30.2199 18386 1
74.9795 39.2094 30.0452 18489 1
71.1719 74.9662 56.7479 7308 1
18.4852 41.7036 31.4057 63648 1
19.3142 41.9352 29.1614 63678 1
20.3295 43.5425 31.5328 63528 2
21.0237 41.0603 30.8768 21093 1
22.8422 40.0968 32.0932 2039 1
23.4447 41.258 29.7766 41066 2
22.5522 42.936 31.6097 63091 2
25.5642 41.0465 31.7684 2037 2
25.0931 43.5387 31.3259 2969 1
25.9005 42.7676 29.0253 41021 2
28.4026 41.0259 30.1686 43701 2
28.2726 43.5684 29.0429 42710 1
29.199 41.0087 32.4081 25055 2
27.7157 43.8897 31.4547 2971 2
53.1011 29.2085 28.5163 1105 1
30.5954 43.2398 31.2055 2090 2
33.2407 41.8472 29.2447 1998 2
31.3241 40.5451 30.8139 41941 1
32.4804 41.807 32.5932 1994 1
34.8117 40.8812 31.5373 2053 2
33.5445 43.7455 31.1637 2051 2
35.3501 43.1481 32.7459 41940 1
37.367 41.7211 31.2955 1202 1
35.9172 42.3354 29.4406 2056 1
38.851 43.4019 30.1028 3133 2
37.7939 44.0361 32.7019 2153 2
39.7655 40.5 30.4797 41984 2
39.1972 41.6383 33.0706 2926 2
41.6441 43.8511 28.7082 41075 1
41.8235 41.5782 29.5691 1200 1
41.2779 43.1382 31.6793 1198 2
43.7484 40.8366 30.5761 25047 1
44.0428 43.3125 30.0843 1251 2
45.6148 40.8872 28.9545 25049 1
46.6957 43.0448 29.4228 1254 2
46.0952 41.5917 31.6784 25018 2
48.2131 40.2883 30.3234 2119 2
51.2675 40.8257 29.7503 290 1
49.3137 42.3747 30.1137 2113 1
51.7409 43.4235 30.5256 289 2
50.6141 40.9969 32.2421 2074 2
50.4025 44.0922 33.0753 2163 2
52.9565 43.0247 33.2143 2116 2
53.1892 41.1252 31.1568 20299 1
55.866 41.0483 29.9262 18427 2
54.4249 43.2068 30.7331 39218 1
55.6126 41.4617 32.7388 2167 2
53.4086 41.9085 28.8498 1167 1
57.2623 43.6183 30.489 19337 2
55.5353 44.1241 32.4519 24949 1
58.0649 41.3015 31.4237 18378 1
60.3915 40.2206 31.8985 20206 2
59.9831 42.1517 30.1035 1255 1
61.4594 42.8766 32.7728 20298 2
62.5075 40.771 30.8248 18379 1
62.7272 43.3035 30.385 18479 1
64.8147 42.2176 31.8016 19338 2
64.6141 41.8266 28.8303 19387 2
64.9238 44.3457 30.3009 18435 1
63.2431 40.1484 33.3054 19378 2
69.1608 43.2652 28.6618 18436 2
66.7499 39.9757 30.3197 18433 2
66.9582 43.0066 30.3098 19384 1
69.2892 40.8224 30.325 18439 2
67.7088 41.9874 32.7088 20305 2
68.8032 43.8818 31.1584 19396 1
70.1442 41.1198 33.1992 19340 1
70.6768 42.7419 31.5662 19389 1
72.7633 39.9973 30.1932 18443 1
74.6182 41.7848 32.0273 20361 2
72.1542 40.9977 32.0087 20353 1
72.4843 42.6532 29.6397 19401 2
73.165 44.2914 31.4726 2141 1
18.7198 44.5371 29.84 63282 2
18.7015 47.264 30.771 63280 1
21.011 46.056 29.7315 53468 2
19.7441 45.9742 32.3196 48662 1
21.1754 48.1691 31.3221 48858 2
23.7655 44.9872 29.5514 63650 2
23.4339 47.3882 30.1989 2088 1
25.2626 46.0159 32.1018 2044 2
22.3563 45.8834 32.3473 63083 2
24.0143 48.5761 32.8778 2963 2
26.0176 48.7168 30.7603 63281 2
26.5407 45.7991 29.2945 41064 2
29.1 45.5767 29.9571 2049 1
27.8574 47.066 31.4302 1131 1
28.1689 48.0117 29.2627 41062 1
29.5418 45.5267 32.4199 2046 1
30.4403 47.7569 30.8121 41946 2
31.7137 45.488 29.4298 2157 2
33.6981 47.1055 31.3113 2095 2
31.7858 45.7117 32.1219 2979 1
34.2128 46.8837 28.7648 40152 1
74.7756 26.7317 33.6864 1076 2
36.0526 44.9465 30.4795 41939 2
38.9248 46.581 29.4796 41124 2
35.919 47.6467 30.4645 41990 1
37.6424 47.0011 32.1193 2159 2
35.3104 45.6584 32.8982 3952 1
37.3978 49.0913 29.2725 2155 1
43.2981 45.7993 28.5222 1257 1
39.7795 45.2521 31.6968 2156 1
41.8309 45.5079 30.3799 1249 1
40.809 47.2189 32.199 1292 1
43.9685 45.9752 30.8022 2162 1
41.8759 47.9552 29.792 1293 2
43.3439 48.1785 32.2884 25009 2
47.9433 44.2128 31.9433 1253 2
44.8496 48.0609 29.3085 2169 2
46.2205 45.4638 30.1417 381 1
45.7593 47.2098 31.8308 21219 1
47.8176 47.0828 30.748 385 1
45.0858 44.5257 32.6249 19458 2
49.9048 47.91 29.006 1305 2
48.9431 44.894 29.4778 340 2
52.1599 48.4493 30.988 1345 1
50.6095 46.1657 31.3122 2208 2
49.8275 48.2843 32.3939 2248 2
49.3466 26.0245 28.8271 23205 2
53.2446 45.6781 31.5699 25040 2
53.6444 47.0527 28.9738 1298 2
55.7494 45.8281 30.291 1306 2
56.9603 47.9628 31.9874 21280 2
54.0113 47.997 32.7964 3089 1
17.733 62.6225 30.9932 55544 2
57.5296 45.2796 32.7486 1262 1
59.7267 44.0795 31.1677 25046 1
58.8351 46.1953 30.6051 1303 2
61.4927 48.4191 30.4684 2172 2
60.0701 47.6274 32.8009 19429 2
61.6214 45.5358 30.8146 20338 2
63.2152 47.3709 32.3188 259 1
63.5426 44.8225 32.187 20304 1
64.3642 46.8683 29.9288 19386 2
65.7374 47.4713 31.9821 25875 1
67.2488 45.9074 30.173 21192 2
68.604 47.0505 32.064 19439 2
69.2764 48.4807 29.6141 18476 2
66.7044 48.7726 30.2146 25042 1
66.3985 44.7867 32.6831 21284 2
70.852 45.4436 30.4475 19436 2
73.2417 45.2069 28.9456 18542 1
74.1504 46.8812 30.8722 20313 2
71.7125 48.1428 31.3302 2268 2
73.413 49.0777 28.8218 19445 2
18.3201 50.7011 32.2261 63275 2
19.0773 49.807 30.2415 63274 2
20.2405 52.6962 31.1159 63060 2
17.9053 52.0258 29.6816 54461 1
35.2785 58.4313 28.634 41118 1
23.568 49.5372 30.2312 63527 1
25.3261 51.364 29.1353 2085 2
22.2158 51.334 29.3761 63486 1
24.7697 51.5234 31.742 63483 2
21.8866 50.7253 32.0744 63234 2
27.7266 50.6 30.6279 24951 2
29.8883 52.38 30.4629 2040 1
30.3913 50.3629 31.4142 40237 1
28.8051 48.887 33.0358 2978 2
74.8191 65.2386 35.0056 20577 2
57.0711 74.9336 35.5226 22679 1
26.4746 50.3473 33.1258 2091 1
29.0014 51.9078 32.9533 2973 2
32.4447 49.4045 30.572 41115 1
34.4253 50.1681 31.71 41120 1
32.5644 51.9971 30.6315 2048 2
34.795 49.6789 29.1617 41077 2
32.0537 49.3338 33.0988 3028 2
31.532 52.2942 33.1078 41114 2
38.8755 51.2633 29.1854 378 2
36.809 49.7256 31.5432 63642 1
38.4458 51.7493 32.2097 2199 2
36.1377 52.0935 30.4789 41170 2
39.5445 49.1807 30.9233 1294 2
40.9495 51.7744 31.5206 1336 1
42.2323 50.3976 29.7898 2200 2
44.1027 52.7149 29.9155 383 2
43.0977 51.2799 32.8769 2242 2
47.3648 48.8466 32.2346 2214 1
47.7965 49.8115 29.3948 41079 2
45.3294 50.2916 31.3961 1295 2
46.7926 52.3695 30.2427 394 1
48.1425 51.332 32.3589 25836 2
45.8374 53.2195 32.5161 1389 2
52.4576 49.8859 28.7569 25001 2
49.1623 52.6393 28.9801 3092 2
50.4513 50.6256 30.7387 2213 2
53.0437 50.674 31.4475 1301 1
54.8711 49.0095 30.5372 19428 2
53.989 52.1434 29.6493 25885 2
56.6223 51.2498 31.187 25890 2
58.7464 48.9095 30.0999 19470 1
59.8468 50.8889 30.6318 3150 1
58.7983 49.8159 32.3663 1310 1
61.6866 50.3398 32.612 20342 2
59.0513 52.2924 32.9308 20437 2
62.7146 51.4097 29.7613 19483 2
64.4096 49.7392 31.2479 18534 2
65.6964 51.6684 30.2904 20397 1
63.6108 52.5543 31.9477 20392 2
66.1607 52.4927 32.7113 20343 1
68.219 50.8979 30.5132 19482 2
69.8835 49.5485 32.0729 1224 1
70.1261 52.726 29.4477 19488 2
67.3433 49.9906 32.8249 20351 2
68.6606 53.2311 32.4118 20391 2
67.318 52.7251 28.9342 313 1
30.5018 75.0576 53.7339 8157 2
71.0197 50.2208 29.6318 20352 1
73.8226 50.9631 30.575 19532 2
71.5198 51.6949 31.9914 20394 2
74.1331 51.7274 33.2421 19485 1
18.6433 54.9445 29.6964 63500 2
21.2798 54.3575 29.0436 63481 2
19.7238 55.6133 32.4002 63223 2
21.3523 57.133 30.6099 48680 2
22.2863 54.8731 31.5519 63046 1
26.0315 54.2016 29.0274 2084 2
23.8811 56.8266 31.6772 63485 1
23.2188 53.197 30.3658 63235 1
23.734 56.073 29.0115 63634 2
24.9085 54.521 31.9834 63188 2
26.3349 56.3721 30.3635 63479 2
27.5565 53.5775 30.978 2089 2
28.9428 56.5888 30.7994 3022 1
29.4331 54.617 29.2628 40191 2
30.1493 54.7385 32.0007 40239 2
27.4661 55.6918 32.937 2195 2
32.1105 54.8187 29.6223 42703 2
34.5446 53.9495 30.9423 41977 1
34.9722 56.36 31.8833 428 2
32.8045 54.6651 32.3895 2980 1
31.6735 57.283 31.6074 2982 2
37.0792 74.6042 40.543 24790 2
36.7716 55.1534 30.3862 477 1
38.3378 55.7624 32.3704 3191 2
38.5506 53.6357 30.4688 19545 1
39.2895 55.8187 29.2036 1343 2
36.7678 54.043 32.922 376 2
41.4466 53.4359 29.8658 1339 2
40.0504 53.8432 32.2332 2201 1
41.1278 55.7004 31.0463 481 1
43.3929 55.2283 30.1477 1386 1
42.9091 53.9726 32.4457 1388 2
42.8185 56.9907 32.2485 2289 2
45.867 54.6471 30.152 2240 1
47.8498 55.8081 28.724 1348 2
44.9969 55.7063 32.0529 1347 1
46.8488 56.7318 31.1437 1393 1
44.8395 57.4007 29.7178 1390 2
48.3932 54.1043 31.3953 1297 2
51.4002 53.0596 31.1695 4065 2
50.3841 55.2733 29.8836 19565 1
49.561 57.1128 31.1745 20463 2
51.8564 56.8207 29.1519 1399 1
52.6964 55.61 31.5411 1397 2
52.7299 54.759 29.2246 1352 1
50.4399 55.4329 32.9307 2292 1
56.2123 52.9794 28.8539 19473 1
54.3648 53.0916 32.2688 20340 2
54.9811 54.5874 30.1962 19469 1
54.659 56.7156 29.0195 20435 2
55.1436 56.8595 31.6821 19657 1
56.9729 54.5711 31.8314 25867 2
56.9354 55.4541 29.3313 19517 1
58.3952 52.904 30.3087 1267 1
61.0504 52.9358 31.1599 19379 1
59.6885 55.2239 30.3218 25887 2
61.8114 56.9107 30.3323 25865 1
62.0336 55.2395 32.2976 19430 2
63.0586 54.4734 29.6711 19476 2
64.4017 56.6581 30.2434 19570 2
64.8161 55.4933 32.5696 19478 2
65.9689 54.0808 30.6448 19486 2
66.9911 56.6644 30.279 19585 1
68.5428 54.7505 30.3797 19523 1
67.5368 55.6774 32.2414 20445 1
69.4361 56.7917 28.9676 19586 2
72.7888 53.2859 30.0919 20402 1
71.0836 55.0728 31.1341 19524 2
73.6265 55.8862 30.0685 20444 2
74.5953 55.7157 32.3237 20446 1
72.9871 53.9368 32.9799 20447 1
72.1336 56.4691 33.0102 19588 2
18.4043 58.1484 29.7935 63187 2
18.9827 60.4042 30.7641 63040 1
19.3528 58.5286 32.2777 63185 1
21.5879 60.0412 31.4994 63183 2
20.6099 59.6054 29.1256 63438 1
19.4167 61.4416 33.1238 55451 2
21.0337 57.8349 33.4383 54504 1
23.8972 59.0882 30.4105 63433 2
25.9121 58.4281 32.3985 53648 2
26.0763 61.009 30.7465 63042 1
24.0745 60.8233 32.6182 63186 1
26.2051 58.8253 29.1609 63410 1
28.2438 59.3076 30.9224 63272 2
29.9962 60.4152 29.3952 53557 1
28.9248 61.6484 31.6068 48774 1
30.6664 57.7913 29.1825 25023 2
30.8187 59.8441 31.5999 3012 1
29.1851 57.7194 32.9744 3023 2
33.3262 57.4742 29.7459 41981 1
33.8629 58.7211 31.848 24941 1
32.7712 60.0251 29.8203 1382 2
35.6168 60.4582 30.5522 24999 2
57.2008 72.4409 28.6632 21782 1
37.2363 57.6482 30.2017 1338 2
38.6165 60.5376 30.7433 24937 2
37.2675 61.3317 32.8441 2330 1
36.9118 58.7041 32.8119 1385 2
17.5957 65.327 30.375 55588 1
42.0677 57.2073 29.1315 435 2
39.9634 57.9752 31.376 429 2
43.0795 59.1803 30.8083 1387 1
41.2582 60.0385 28.9571 479 2
41.0017 60.3687 31.7241 19607 1
43.4763 60.6055 32.9726 1441 2
45.5522 60.3864 30.5635 1445 2
47.5189 58.9775 31.8198 2294 1
47.6369 58.6925 29.2134 1447 2
45.3714 58.1954 32.8404 20511 2
47.2924 61.6086 28.9861 1395 1
48.6918 60.6028 30.8382 1444 1
52.5806 61.1267 29.0835 2342 1
50.6384 59.3818 29.4552 19569 2
52.6796 58.4635 31.1253 1398 2
50.9652 61.2313 31.5016 25035 1
50.1455 59.0785 32.5935 3201 2
53.4695 61.0773 31.3528 24996 1
55.2301 59.3513 29.8001 20473 2
55.8188 61.4 31.4285 25862 1
54.9072 59.1635 32.9725 20470 2
54.6521 61.9752 29.3565 18770 1
57.3183 57.5816 30.6831 448 2
59.7771 57.6007 31.9621 444 2
59.8564 58.2083 28.8926 19575 2
57.9291 60.4594 29.7063 19618 2
60.178 60.082 30.8033 20476 1
57.8655 59.9069 32.2837 20477 2
62.1653 59.5625 30.1913 19572 1
64.5551 60.3223 31.656 19520 1
62.3148 61.4112 32.2422 19623 2
62.8394 58.2252 32.3685 20428 2
64.8549 59.0764 29.5271 19574 2
63.5241 61.7581 29.4043 19580 2
65.9924 58.3322 32.3477 19578 2
69.2719 57.6547 31.7305 19626 2
67.6346 59.2219 30.004 1420 2
69.8414 60.7083 31.0209 20487 2
67.1414 60.7372 32.4421 20483 1
66.3418 61.5972 30.1396 546 2
71.5054 57.9308 30.7586 20488 1
74.3094 61.2747 32.2115 20497 2
72.4301 60.2314 29.7536 20485 2
74.0712 58.2864 31.3101 20489 2
71.7315 59.4937 32.7881 20537 2
74.7854 59.6068 40.6415 22351 1
71.9424 72.6604 73.553 15179 2
20.7153 62.4784 29.8549 63425 2
20.2286 65.5646 29.6664 54635 2
19.79 64.3896 32.1331 63146 2
22.1156 62.6023 32.2391 63233 1
18.4765 63.8294 28.895 53783 1
23.8555 62.2877 30.3022 54632 2
25.2466 64.9773 30.5708 63028 2
22.3403 64.7255 31.1216 48872 1
24.4178 63.6191 33.0929 63036 2
23.8072 66.753 32.0021 55685 1
26.8729 64.9195 33.1517 63024 1
26.8498 63.1989 31.6447 63043 1
27.6721 62.336 29.3941 63227 2
29.044 64.3553 31.4494 63176 2
30.6527 65.2569 28.8942 5309 2
44.1957 18.2543 44.1922 21063 2
31.2977 62.4105 32.9122 22153 2
31.0406 62.5291 30.0938 24954 2
33.3374 61.5365 31.945 3025 2
33.8577 63.3388 29.5874 19499 2
32.0144 64.7703 31.1649 2284 1
33.2198 65.9324 29.6239 24853 1
34.0602 64.5328 32.2106 3948 1
35.6465 62.8445 31.7948 20458 1
36.8637 62.7377 29.2108 2288 2
39.3519 64.6593 29.3737 2328 2
35.9412 65.2162 30.5774 3184 2
38.4319 63.3726 31.8671 1384 2
40.5939 62.4521 30.5833 2286 1
42.9798 62.0726 30.5651 1439 2
40.4682 65.1363 32.1208 2331 1
42.0031 64.6452 30.596 572 1
43.0793 64.1984 32.7307 18756 1
47.5471 64.3555 28.948 528 2
37.8158 18.1837 63.7794 16756 2
44.8398 62.712 32.3751 1438 1
44.6504 64.2279 29.9996 1442 2
47.1936 62.811 31.208 1443 2
45.4798 65.0385 32.2305 19652 1
48.1114 65.4475 31.8121 19614 2
49.77 63.4732 31.5328 25036 1
52.3971 63.4996 30.8247 19617 2
50.4437 65.501 29.9593 1446 2
50.1406 62.3928 29.2578 19660 2
51.2123 65.7824 32.8138 2388 2
54.8444 63.9783 30.5227 19665 1
56.4096 65.5516 31.9336 2430 2
53.7158 65.3036 32.6353 1490 1
56.8576 63.0151 32.6993 20518 1
53.4247 66.1793 30.0029 2381 2
58.5339 74.8188 48.5108 25713 1
57.2486 63.0938 30.0386 20521 2
61.0684 65.8071 30.1901 19670 2
58.9033 64.7525 31.2847 20522 1
60.3059 62.6945 30.3201 18729 2
61.1489 64.9295 32.7714 20566 2
59.3231 62.2915 32.7512 20525 2
65.02 63.0047 32.6637 20528 2
62.6017 63.7101 31.0896 25860 1
65.1589 63.947 30.3083 19625 1
64.0473 65.8741 30.8003 19624 1
63.5091 64.6913 28.9549 1455 1
65.3415 66.1418 28.8731 2354 1
67.6009 64.0263 29.8523 602 1
67.8405 63.1237 32.0116 20533 1
70.2988 63.5369 30.654 20527 2
68.7254 65.2539 32.2493 25854 1
66.5715 65.8954 31.3123 21433 2
69.5678 66.1346 29.4285 18736 2
17.8132 57.3962 34.285 54542 2
71.6856 64.6121 28.7231 1461 1
71.9881 61.9921 31.6787 21396 1
73.5541 63.1566 29.7507 19679 2
72.4849 65.847 30.8064 21693 2
71.2942 64.258 33.0175 19639 1
73.7185 63.8815 32.6007 22549 2
52.5539 18.0805 44.5981 4579 1
18.9207 67.8154 30.1216 54678 1
21.2202 68.2176 29.3837 63142 1
20.9852 67.2919 31.9184 63177 2
18.2814 66.8022 32.0128 50692 1
20.013 70.3511 31.0601 54810 2
21.2279 69.9166 33.2754 54812 1
19.0835 68.9733 33.1563 55591 1
21.9081 70.408 29.1756 63128 1
74.5657 45.0853 40.6049 22108 1
23.0319 66.6801 29.9079 63141 1
23.0102 69.2871 31.1973 54677 2
25.1914 67.7882 30.4392 63140 1
25.7092 70.0153 31.1886 63124 1
27.4453 66.8602 31.5507 63144 2
29.2347 67.2601 29.5129 1383 1
28.5555 69.7474 31.1072 63139 2
27.0872 68.1168 29.1078 55682 1
30.4324 66.9797 31.7997 63037 2
31.1566 69.0919 32.6226 63039 2
31.6377 68.3033 29.3793 63014 2
34.3338 68.0643 29.6582 48819 1
33.736 70.1666 31.3857 4408 2
33.6154 67.086 32.0048 5806 2
31.0794 70.4991 30.3379 4458 1
17.6774 32.9861 58.7861 51337 2
38.5237 66.3531 31.6269 2332 1
36.5372 68.3013 30.9023 2373 2
39.0695 69.1181 30.9867 2419 1
38.0051 66.6217 29.0241 4413 2
40.7752 67.2232 30.2045 1482 2
43.5634 67.96 29.9542 579 1
43.291 66.6047 31.941 2420 2
42.2575 69.0877 31.7177 1485 1
45.9589 66.5406 29.4998 578 2
48.007 67.9898 30.2332 1528 1
44.6869 69.728 32.3003 1483 2
47.4694 69.2913 32.3923 3294 2
46.0038 67.3359 31.8882 25034 1
45.833 69.3074 30.0479 3300 1
47.7686 70.5651 29.4272 1535 1
50.3996 68.3469 29.052 1488 2
49.7272 67.7652 31.8616 2338 1
52.0532 67.9166 31.3804 2427 1
52.3514 70.1084 29.9898 2431 1
51.5992 69.8576 32.9938 24995 2
17.7883 53.102 35.8348 56308 1
54.3027 70.0777 31.5787 1533 2
55.622 67.7045 30.4811 2425 1
54.116 67.6681 32.2715 2384 1
56.6662 68.4031 32.9449 2439 2
57.1718 69.9206 30.2327 19667 2
60.5176 69.3245 29.9673 19718 2
60.6456 68.1725 32.2532 20569 1
58.3435 67.0471 30.0801 25882 2
58.8678 69.7501 32.0015 25855 1
58.828 66.8718 32.5926 20474 1
34.8375 55.6447 28.8491 41126 2
62.7543 67.3233 31.9514 20571 1
63.0223 70.1614 29.0015 21779 1
65.0641 68.3942 30.7483 20529 2
62.7364 69.5433 31.2593 21735 1
66.8579 70.3107 31.9952 19669 1
68.19 68.1835 31.3307 22589 2
70.1082 66.2626 32.4703 23502 2
69.524 70.3288 30.8306 21740 1
69.9594 69.273 33.4183 22639 2
70.7259 68.4188 30.6864 25816 1
73.4281 68.8508 30.3905 2592 2
74.0737 69.759 32.6394 21748 1
72.2636 68.0378 32.7118 25853 1
71.776 67.4309 28.944 2396 1
71.3881 70.4019 29.4327 18741 1
19.2578 73.4396 32.0321 54859 2
20.9797 72.7551 29.2723 54023 2
18.0797 71.674 29.5156 63105 1
18.4185 74.2726 29.1043 63363 2
75.0905 25.1266 70.4187 28710 2
22.1928 72.1903 32.0615 62901 2
25.8786 74.0252 30.3937 63005 2
24.0391 72.0792 29.932 63118 2
24.9334 72.0199 32.4256 63010 1
24.1477 74.5892 31.7187 4505 2
28.4206 74.4982 31.1009 22518 2
27.0953 72.0089 31.128 48908 1
28.8625 72.198 32.5815 4507 1
29.6797 72.3253 29.8684 3587 2
64.8611 18.1076 46.5561 10451 1
26.7568 70.8059 28.7704 63125 2
33.9304 74.3504 29.4576 3590 1
35.1427 71.4383 29.3018 21775 1
34.3171 73.311 31.8492 3599 2
32.735 72.2464 29.9397 4512 1
31.4595 72.0023 32.566 3543 2
31.6334 74.538 31.0101 3594 2
37.7641 70.6854 29.6107 3597 1
36.1309 71.2251 31.3807 3598 1
36.5606 73.4021 29.8501 3602 2
38.9104 72.1897 31.5365 4520 2
36.8337 73.2856 32.8762 23876 2
40.8998 70.3727 29.9764 2374 2
43.6842 70.3853 29.9084 530 1
42.7247 72.7388 28.8331 577 2
42.4095 71.9732 31.6316 1532 2
40.7466 73.6165 30.0905 19699 1
45.434 72.1492 30.6358 1487 2
47.9144 72.2672 31.8806 2424 2
46.0028 74.2919 28.9812 37850 1
46.0575 74.5663 32.1004 21842 1
48.3618 72.9943 28.9167 633 2
49.7553 70.543 31.0957 2426 2
50.318 73.4064 30.6483 21736 1
52.1408 72.0025 31.4147 22630 1
52.7197 74.3512 31.8703 22632 1
74.6014 20.0966 36.6663 12412 1
31.64 74.8317 65.0389 10805 1
53.9225 72.9377 30.4593 21526 1
56.4675 72.2375 31.3445 21476 2
55.9628 74.0135 29.6214 12850 1
55.2791 74.6617 31.6678 21729 1
54.8144 71.0031 28.9911 25821 2
58.4414 74.6234 31.8268 20618 2
59.3248 72.0992 30.615 20619 2
60.9101 74.4765 29.4026 21788 2
58.3421 74.3942 29.3927 25814 1
61.2524 73.7291 32.188 21730 2
61.2436 70.7833 33.0292 20570 2
58.7643 72.1686 33.0665 20616 1
62.09 71.7778 30.6132 25856 1
64.8406 71.2023 30.8361 20824 2
63.7184 73.8815 30.2831 22588 2
63.3397 72.4919 32.6375 25778 1
66.0823 73.2418 32.6453 22638 2
63.8081 74.7564 32.6109 23542 1
67.3403 70.5572 29.3518 21739 2
66.733 73.7442 29.6216 21781 2
68.4789 72.2655 32.0168 21737 2
70.0042 72.7035 29.9068 22688 2
70.3509 74.0006 33.3787 22645 2
71.6838 71.1516 32.2509 22642 2
72.7417 72.2512 30.2916 21785 1
71.6838 74.0984 31.3362 25817 1
73.6933 74.3886 29.255 20834 2
74.039 73.0199 32.5908 21791 2
73.2118 74.8485 47.4034 24500 2
18.5601 19.9008 34.3121 59349 2
20.9001 18.9512 35.733 2716 2
19.3644 22.4411 35.0771 20051 2