ITEM: TIMESTEP    
125000     
ITEM: NUMBER OF ATOMS  
77888     
ITEM: BOX BOUNDS pp pp pp
17.607 132.393    
18.0782 131.922    
24.8622 125.138    
ITEM: ATOMS x y z id type
19.6634 20.4417 25.573 72779 2
19.6564 20.2118 29.176 1881 2
21.7339 19.2815 27.5303 1839 2
21.6713 22.5023 27.045 977 2
36.3868 29.9087 25.4143 2000 1
74.8786 62.5966 74.7096 15922 1
25.1131 19.3151 26.3106 23170 1
23.6806 21.1417 27.7475 1848 1
25.619 20.1769 28.4982 22628 1
24.5858 21.4729 25.3951 926 1
27.8793 19.1356 25.4242 72824 1
30.2513 20.4439 27.2069 20062 2
27.1823 21.4754 26.6894 1846 2
27.9006 18.6782 28.0902 1845 2
33.0498 20.8279 26.7089 43709 1
32.0527 22.0474 28.7281 25026 1
32.2961 18.6054 26.5363 2719 1
33.4203 18.9976 28.8422 23637 2
34.4867 21.2783 28.9318 2726 1
35.6636 20.4202 26.6371 1851 2
38.5191 21.2593 25.8661 22537 2
37.4261 21.8441 28.6722 1899 2
38.0725 18.6983 27.4345 22536 2
39.9199 18.8553 25.2946 1904 1
40.7096 20.2677 27.6341 1854 2
43.3459 18.7981 27.7124 23128 2
43.0399 22.1871 26.6619 40934 2
42.0728 22.5045 28.9653 3665 1
17.6352 20.0032 27.4766 20053 1
44.1018 21.247 28.9541 21871 1
45.16 19.847 25.8114 1099 2
48.0424 20.572 26.1708 40834 2
46.2726 19.7088 28.6622 22576 2
48.3072 21.6481 28.7647 1908 1
46.0914 22.5084 27.3087 43705 2
50.8348 18.9348 25.9386 38521 2
50.4629 21.938 25.8889 40893 1
52.6016 19.7009 28.3778 22574 1
51.2598 22.0976 28.4957 1110 2
49.6811 19.6212 28.4815 22529 2
52.9302 20.8697 26.0266 38365 2
55.8262 18.9285 25.4233 21944 1
55.1639 20.0721 27.4174 12513 1
55.6922 21.748 25.3328 39988 2
57.0595 21.5428 28.1846 13500 1
54.5064 22.5141 28.2788 23176 2
60.6811 21.7872 25.608 31298 2
60.1408 19.5314 27.9331 19184 2
59.6447 22.1954 28.6509 31285 2
60.8378 19.0955 25.4887 31004 1
57.9814 19.9516 26.3384 38509 2
64.8044 21.3962 27.6027 21892 2
62.4444 20.355 26.78 31021 1
65.0417 19.4624 25.6006 30371 1
65.2765 18.2645 27.9642 30999 2
74.8986 60.5212 69.5522 15026 1
67.6175 19.7785 26.4407 31023 2
69.4622 21.25 28.511 19245 2
66.8997 20.3961 29.0799 20998 1
70.3271 18.436 28.5982 38366 1
67.5381 22.2955 26.8032 31293 1
70.146 22.4143 25.8212 31019 2
73.6963 74.1601 71.5232 3564 1
71.6373 19.9369 26.9293 30996 2
73.5209 21.7762 27.9442 12413 2
73.0884 18.2723 28.3553 21403 2
18.6991 25.3977 26.4562 970 1
18.5058 22.7535 27.3103 1928 2
20.4799 25.2472 28.3458 1885 2
22.5644 24.8165 26.7307 25062 1
24.1826 26.2276 28.2224 1888 1
24.9308 23.5631 27.1112 25024 2
25.0544 26.4692 25.5687 25061 2
26.2589 25.5795 28.1356 1945 1
29.6233 22.6445 25.8024 1895 1
26.9569 23.3494 28.8855 1884 1
27.9024 24.7289 26.2145 1943 2
30.3788 25.7368 27.1598 40920 2
29.5521 23.4025 28.5104 1944 2
32.1029 23.3465 26.1831 989 2
33.2748 26.5232 27.2469 1035 2
32.2846 24.3705 28.5595 25060 1
34.7584 23.4661 27.5564 25027 2
36.3944 23.2236 25.2182 40928 2
37.856 24.6885 27.5712 2729 2
35.7028 25.922 26.8502 40922 1
39.7331 26.1218 26.4549 2836 1
37.6715 26.3692 25.2565 2779 1
36.8872 26.5282 29.2596 1951 1
39.9762 23.3339 27.4357 3770 2
41.5903 24.7334 25.7579 1956 1
42.1304 24.9315 28.2371 2782 1
40.028 26.6194 29.0224 1958 2
43.9355 24.5477 26.6012 41801 1
44.2337 23.6629 29.1227 22532 1
46.5252 25.4219 26.31 40939 2
47.057 24.4166 28.8586 1153 1
44.7445 26.3603 28.5995 2837 2
68.9212 74.8249 27.7103 21787 2
49.1877 23.9828 27.1838 40989 2
52.2083 23.9318 26.2719 19180 2
50.8499 26.1589 27.6547 2020 2
74.8881 46.0271 71.0711 27785 2
53.6107 25.9692 27.8397 23642 1
55.1251 24.5671 26.2779 40025 2
55.422 24.8327 28.8612 40030 1
57.3562 23.7047 29.0264 23172 1
57.0876 25.153 24.9613 18326 1
57.5927 26.1427 27.5683 18330 2
58.0662 23.4858 26.4413 38629 2
59.764 25.0059 28.3652 20148 1
60.7728 24.9289 25.8138 199 2
58.2001 27.078 25.1766 19227 1
60.1249 27.0755 26.8509 246 1
62.4254 23.0469 27.7481 19285 2
65.1723 25.2865 28.6685 20106 2
64.5728 23.9633 26.5814 18327 1
62.9676 26.4377 26.4721 19229 2
65.7134 26.8688 26.6093 18337 1
62.9596 23.4092 25.0556 30803 1
69.7645 24.3979 28.0799 1065 2
67.5643 26.0748 27.9969 19241 1
67.2919 24.6341 25.751 31294 2
67.1336 23.2411 29.189 31002 2
74.8025 22.6964 25.576 39972 2
70.4223 25.4291 25.1448 44061 2
73.433 25.2717 25.5262 44079 1
72.2422 23.7658 27.1429 12457 1
72.0808 26.1564 27.2324 30290 1
74.6171 24.7833 27.7639 43162 1
72.2533 25.5494 29.4609 19299 1
21.0485 26.658 26.2126 52493 1
18.4189 27.3049 27.9333 63548 1
19.6309 28.8531 26.3761 1933 2
18.0145 29.7971 29.0335 1936 2
20.7007 31.1901 24.8863 72807 1
21.7277 30.4697 27.6499 1071 2
22.1467 27.7807 27.8382 63545 1
24.6392 28.8176 27.1101 1023 2
25.8391 27.8797 29.5365 1025 2
42.1249 20.0881 25.1474 43666 1
26.7776 28.5402 25.3121 986 1
26.613 30.1494 28.2541 40916 1
27.9865 27.6737 27.4375 39954 2
28.8489 30.0886 26.5332 19240 1
29.2931 27.7155 25.079 41796 1
28.8994 29.6103 29.5623 1947 2
30.379 27.4487 28.9467 1949 1
30.7196 28.779 27.1092 983 1
32.5455 28.7643 29.155 41845 2
33.4606 29.5974 26.1698 41885 2
33.9028 31.1087 28.6112 1033 1
31.9295 27.5178 25.0457 43811 2
35.5206 28.6815 27.6786 40926 2
37.6962 29.9986 27.6017 2010 1
38.0136 27.5394 27.3128 1083 1
38.9036 29.0649 25.2375 1907 2
17.8041 65.6103 61.3793 24265 1
42.4297 27.2435 26.9654 41842 2
43.5341 30.1325 27.2722 43703 2
40.2774 29.6794 28.06 40975 2
74.9511 35.0131 65.7838 28611 1
45.2559 27.8714 26.4386 40985 1
46.589 30.2363 26.0866 41032 2
48.2188 27.509 27.3865 40935 2
45.7666 29.0315 28.9439 41849 2
28.7887 74.9711 25.8503 24854 1
49.4987 30.1103 27.3208 1954 1
50.8785 28.3684 26.1435 42717 1
51.1255 28.8534 28.5887 2027 1
51.9153 30.9003 26.7669 1163 2
50.6695 31.1119 29.3944 42715 1
35.5206 74.8103 67.6292 12487 2
53.1737 28.2718 27.327 40996 1
55.5687 27.7279 28.6657 20144 2
55.0971 30.2559 26.8041 248 2
55.5995 27.6083 25.5387 19382 2
53.4123 29.189 25.077 1105 1
57.9052 29.2878 26.9945 19231 2
61.1769 29.4117 25.8821 2792 2
60.4521 30.6148 28.6689 200 2
59.2611 31.3045 26.0669 1109 1
61.9645 28.2808 28.1192 19243 1
64.3678 29.2268 26.4063 19242 2
63.4769 30.6442 28.4649 20214 2
68.375 27.5464 25.7405 30998 2
69.983 27.5836 28.1135 19186 2
67.0925 28.8202 28.0439 12515 2
69.6934 30.0088 26.3666 43818 1
67.009 30.4177 25.6345 30833 2
69.2175 30.64 29.1862 20158 2
74.4704 27.7298 26.8583 30993 2
71.5216 29.9524 27.7175 19294 1
73.6372 30.4494 26.7794 43804 1
71.6488 28.0648 25.4953 18339 2
72.5009 27.8328 28.6009 18336 1
74.238 29.7694 29.2699 19300 2
74.8689 39.0922 67.8408 29358 2
18.1717 31.4839 26.5978 63536 2
18.3411 34.7734 27.102 1017 2
21.4887 33.1555 26.4081 1060 2
19.9857 32.4081 28.8323 1934 2
20.6743 34.9639 28.2942 63543 1
24.5039 31.77 28.1974 63681 2
24.1776 33.9882 26.8825 43702 1
22.6729 33.9891 28.6689 1069 1
23.6721 31.7305 25.2622 72814 2
26.5016 33.6151 27.5936 1070 1
28.5359 32.1589 27.6772 40965 1
28.735 34.311 26.1029 1031 2
26.5874 31.3855 25.7841 40917 2
28.0762 34.7138 28.8621 1989 1
30.3243 34.2554 28.5605 2916 1
29.614 31.9675 25.4268 979 1
31.264 31.3792 27.6003 1940 2
34.5374 34.8727 27.5413 24974 2
33.5948 32.5453 26.5788 984 1
31.8309 34.4611 26.5032 1029 2
32.7708 33.4513 29.5368 1950 2
35.9141 31.9561 27.1616 41893 2
38.8563 32.3501 26.538 1199 2
36.8693 34.8895 25.9533 41937 2
37.0244 33.6745 28.5132 1080 1
39.4875 34.5755 28.1777 20283 2
41.3618 31.4054 26.1472 42701 1
39.6128 35.3308 25.5362 19202 1
41.6336 34.1526 26.4845 2002 1
43.5399 32.6659 25.3524 41848 2
41.8637 32.5005 28.5528 2004 2
42.275 35.2488 28.7104 2944 1
44.1564 35.0863 26.9963 2990 2
47.6496 31.1423 28.3816 2942 1
47.2833 34.1276 27.6872 2067 2
45.1488 32.2975 28.0674 43700 2
46.4698 33.2442 25.297 197 2
49.9668 33.0515 27.5711 237 2
52.5275 34.9626 28.5986 2022 2
52.0106 33.4009 26.0346 291 1
52.6687 32.4414 28.7952 2902 1
17.6638 65.3119 37.9035 62909 1
49.3 34.8808 25.2381 1211 2
56.9665 34.7395 27.0927 19334 1
54.5009 33.4213 26.8039 20251 2
55.5059 34.6267 29.0118 1208 1
54.8723 31.9886 29.0521 249 1
74.9005 73.2304 64.0705 9898 1
57.3062 32.0433 27.9134 2077 2
59.0563 33.8726 26.16 241 2
60.3976 34.1131 28.5284 19233 1
58.1045 34.5725 29.047 19235 1
19.2977 18.145 57.2007 62509 2
61.832 32.4362 26.7138 1112 2
62.2604 34.9751 27.6231 43165 1
64.7801 32.1232 25.9272 18380 1
64.25 33.3876 27.9545 19341 1
64.3427 35.08 25.7626 19232 2
66.4383 35.0188 27.6488 19339 1
66.5131 32.0797 28.2491 19289 2
66.9206 33.5505 25.9692 19288 1
68.7665 32.1463 26.9644 20162 1
68.9195 34.272 27.8904 19293 1
70.72 35.669 26.4809 19349 2
67.769 35.8423 25.8119 20215 1
73.6582 32.4284 25.464 19297 1
71.6445 32.7059 27.0422 19246 2
73.7442 34.9165 26.4891 43988 2
74.6218 32.6454 28.116 19301 2
71.5427 34.4622 29.2193 19295 2
72.3209 31.6584 29.268 19296 1
69.7288 19.6897 24.9343 30997 1
19.867 37.0708 26.8409 63542 1
19.4113 36.8158 29.5535 63540 2
19.7658 39.8602 26.9387 63537 2
71.4332 74.8132 40.95 22691 1
21.7318 38.7643 28.5827 1979 2
24.4691 36.667 25.3035 2034 1
22.5567 36.3049 26.9375 1988 2
24.5826 38.602 26.9003 2036 2
25.4737 35.8729 28.3793 1075 2
29.6023 36.6479 27.7794 1074 2
27.2581 36.7661 25.7554 41015 2
29.2116 39.5285 26.5955 1028 2
27.0251 38.5642 28.2434 1122 2
30.4475 37.057 24.9366 1027 2
34.829 38.0975 27.7599 2829 2
31.7684 38.463 27.4036 1079 1
32.9465 36.6872 26.234 41936 1
32.5874 36.5606 29.0258 1997 2
32.4015 39.131 24.931 1135 2
38.2619 37.4631 26.4259 41068 2
37.3374 38.941 28.8679 2061 2
36.9279 36.2253 28.8435 1995 2
35.4698 37.3322 25.1763 41888 2
41.0775 36.6864 26.798 40988 1
42.0559 38.8801 25.5669 1204 2
42.9814 37.4952 28.2981 2066 1
40.1427 39.4454 27.8035 41984 2
45.0942 38.6229 27.6738 41031 1
47.5145 36.9147 27.4701 330 2
46.6876 39.1649 25.4709 286 2
44.2973 37.4401 25.8328 1159 1
46.4308 35.8604 25.4416 1197 1
45.4662 36.0804 29.293 2995 2
50.0763 36.0818 27.9116 41035 1
51.964 36.5055 26.2547 1155 2
51.9387 38.051 28.5484 1162 2
49.7214 38.1405 25.7743 40108 2
49.3175 38.171 28.9937 1213 1
53.7907 39.1774 26.3817 18473 2
54.6779 36.5266 27.1492 20297 2
54.7877 38.8581 28.7484 388 1
57.0932 36.7128 28.3898 19276 1
74.9615 57.9157 68.8682 28419 1
57.268 39.3205 27.3659 18430 2
57.5257 36.8524 25.625 288 2
60.1567 38.9665 25.6574 18381 2
59.835 36.4574 27.2157 2121 2
59.4803 38.6918 28.4571 18376 1
62.4464 37.0811 26.2719 1119 1
62.2067 38.9141 28.2678 19286 2
64.0957 36.9514 28.0617 20213 1
65.1848 39.1974 28.6265 20260 1
64.2163 39.4214 26.2353 44031 1
66.2533 37.7113 26.7128 19281 2
68.8954 37.6324 26.6669 19290 1
67.7229 39.2695 28.2783 163 1
69.0187 36.5555 29.1245 19291 2
70.8204 38.1356 25.1702 18383 1
71.0209 38.7 28.0853 18437 2
72.3625 36.6878 28.4638 25899 1
74.143 38.5623 28.6853 19352 2
72.9721 37.6592 26.2775 18386 1
74.6383 39.3067 26.307 18489 1
72.2796 39.8964 26.0433 18443 1
19.3664 42.5256 28.1676 63648 1
20.3133 42.3766 25.9647 63678 1
21.4572 41.6753 28.5239 63529 1
22.6638 40.3804 26.3961 2045 1
22.6035 42.7257 26.5608 21093 1
23.674 40.5569 28.6567 2039 1
24.9698 42.0074 25.8814 41066 2
24.0362 43.4274 28.4672 63091 2
26.2868 44.1346 27.4232 2969 1
26.2779 41.2338 28.3353 2037 2
28.0004 42.5397 26.228 43701 2
29.3063 41.6937 29.2429 25055 2
26.9392 39.7027 25.2264 41016 2
30.5368 43.6294 27.5842 2090 2
30.8144 41.9236 25.1969 41883 2
34.0305 40.6541 26.8422 1998 2
31.3642 40.7153 27.6989 41941 1
33.4246 43.2196 27.0887 2051 2
34.3 43.4039 29.5855 41940 1
32.3802 42.1502 29.3675 1994 1
37.0995 40.3079 26.1472 41072 2
38.1975 41.9624 28.7626 1202 1
36.3548 43.6823 27.3438 41939 2
35.6361 41.0807 29.1218 2053 2
39.0729 42.343 26.274 3133 2
39.1182 44.476 28.4727 2156 1
35.6989 42.2146 25.2452 2056 1
41.6248 41.4771 26.065 1200 1
40.9575 42.0144 28.7255 1198 2
42.9959 40.2062 28.019 25047 1
43.7212 43.0461 27.2335 1251 2
41.2945 43.4041 24.8724 41075 1
39.4753 39.7838 25.2091 42706 1
48.2138 40.1818 27.6609 2119 2
44.5115 40.7619 26.2869 25049 1
46.7124 42.5476 26.4534 1254 2
45.777 41.1051 28.7725 25018 2
51.0826 40.026 27.0034 290 1
49.4532 41.4779 25.2502 41038 2
49.2677 42.4535 28.0026 2113 1
52.0511 42.7197 27.0419 289 2
50.7142 40.7892 29.3228 2074 2
54.2144 43.6969 25.9352 1307 1
55.4696 41.373 26.6709 18427 2
54.5577 43.1258 28.3644 39218 1
53.2663 40.786 28.4284 20299 1
56.8325 44.2736 25.0994 1350 2
74.8661 44.3264 29.439 19447 2
57.3663 43.1195 28.3461 19337 2
58.1403 41.6255 25.5921 19282 2
60.2358 41.4895 27.6869 20206 2
59.51 43.8208 26.7138 1255 1
61.5782 44.049 28.878 20298 2
61.8304 43.1989 26.2177 18479 1
62.2388 40.7892 26.1386 18379 1
63.8722 41.7011 27.8981 19338 2
63.7011 44.1941 26.8281 18435 1
74.786 19.6734 26.1144 31289 2
65.9228 43.5747 25.9851 19384 1
66.5204 40.9508 26.1294 18433 2
69.3934 40.5484 26.5948 18439 2
67.8371 42.9264 27.2996 19396 1
69.4586 41.8927 28.8255 19340 1
70.1747 43.4403 27.2346 19389 1
71.6721 41.3623 27.9823 20353 1
74.3312 41.5573 27.8702 20361 2
71.886 42.5457 25.3828 19401 2
73.0413 43.8913 27.422 2141 1
34.9634 56.0378 24.9005 41126 2
21.2805 44.4552 27.8403 63528 2
18.7843 44.9836 26.5089 63282 2
18.8131 47.8061 28.1947 63280 1
21.2747 47.076 26.5332 53468 2
20.7153 46.9972 29.1245 48662 1
24.096 45.415 26.1082 63650 2
23.77 48.016 27.0839 2088 1
25.4577 46.1482 28.8454 2044 2
22.9219 46.2968 29.3668 63083 2
28.3482 44.9787 29.1516 2971 2
27.1427 46.2359 26.2126 41064 2
29.6929 45.9503 26.8653 2049 1
28.4076 47.6666 28.1881 1131 1
28.5762 48.421 25.8386 41062 1
30.5677 46.2823 29.2929 2046 1
32.6697 46.1053 26.5866 2157 2
32.8047 47.2631 29.0886 2922 1
34.7063 48.196 27.3053 2095 2
34.7347 45.62 28.5428 3952 1
32.4634 44.9112 29.1447 2979 1
30.8175 48.3379 27.4677 41946 2
32.5855 48.3115 25.023 2092 1
31.789 44.3138 25.0398 24950 1
38.9088 45.5421 26.0881 41124 2
35.9098 46.1695 26.4421 41990 1
37.3398 46.8508 28.3021 2159 2
37.3237 48.088 25.7333 2155 1
41.0502 44.2385 27.0016 1249 1
40.5702 46.5579 28.2847 1292 1
43.0957 45.7878 27.2728 2162 1
41.5312 46.6118 25.5636 1293 2
43.1432 47.654 29.1633 25009 2
56.1749 74.9885 47.2136 24490 2
47.5916 44.2417 28.6456 1253 2
44.6554 47.2653 25.4583 2169 2
45.4539 45.0657 26.9093 381 1
45.6934 47.1776 28.1686 21219 1
47.7824 46.6264 27.0732 385 1
47.7362 48.434 28.705 2214 1
44.8591 44.8277 29.4658 19458 2
24.2206 74.5053 52.8204 24613 1
52.04 44.9794 25.235 2120 1
49.5147 44.5131 26.192 340 2
51.7679 46.9319 26.7344 1345 1
51.8076 47.8631 29.0529 1302 1
50.0088 46.3204 28.446 2208 2
53.1318 45.2995 28.0207 25040 2
56.0712 45.5762 27.5557 1306 2
54.2066 46.0991 25.5182 1264 1
54.1266 48.2049 27.7032 19428 2
55.8893 48.245 25.7375 19426 2
57.3443 48.2853 28.5193 21280 2
58.9443 45.8577 28.4313 1303 2
58.7117 46.7445 25.7513 20346 2
61.609 46.1604 26.5847 20338 2
61.5884 46.7928 29.2211 259 1
66.0784 44.5004 28.3316 21284 2
63.6424 45.7558 28.7475 20304 1
64.8411 46.5256 26.3126 19386 2
62.7183 48.4186 25.791 1274 1
66.0872 47.3158 28.6976 25875 1
63.4538 48.3415 28.3257 18534 2
68.1684 45.6346 26.3623 21192 2
68.8788 47.6452 28.7059 19439 2
69.564 48.3996 25.5951 18476 2
67.345 48.6519 26.8553 25042 1
17.7301 45.5678 60.6288 62173 1
71.0128 46.1914 27.0997 19436 2
73.0802 45.1243 25.5236 18542 1
73.4427 48.578 26.0599 19445 2
74.056 46.5162 27.6678 20313 2
19.3971 49.4306 25.9988 63274 2
18.0602 51.9902 26.5108 54461 1
21.4916 49.6588 28.2739 48858 2
20.3437 52.7939 28.0052 63060 2
18.7101 50.6209 28.7275 63275 2
17.757 38.6725 54.2631 9311 1
26.0448 49.0602 27.2432 63281 2
23.7985 50.6633 27.9524 63527 1
25.1192 51.5272 25.725 2085 2
22.3551 52.1306 26.3409 63486 1
25.9484 52.482 28.2015 63483 2
22.9109 52.7852 29.138 63234 2
22.5476 49.7509 25.3194 48669 2
28.4355 50.7348 27.1594 24951 2
29.9648 52.7684 26.4456 2040 1
66.9699 74.7422 72.1404 25981 2
55.9486 18.3121 65.3475 29912 1
32.8451 49.9806 26.4142 41115 1
31.0265 50.9679 27.735 40237 1
34.7978 51.0195 27.2864 41120 1
32.6246 52.5338 26.519 2048 2
37.2415 51.8722 26.3318 378 2
37.0524 49.7743 27.602 63642 1
38.6578 51.0073 28.8529 1336 1
31.433 18.0819 57.6281 9085 1
37.8387 48.9014 29.606 2197 1
74.9451 54.8913 55.7257 29315 2
39.6828 48.5972 27.1186 1294 2
40.5851 51.632 27.0617 1339 2
42.4738 49.3387 26.2892 2200 2
43.8156 52.1941 26.1106 383 2
42.7526 50.8764 28.9716 2242 2
47.3108 48.8194 25.8604 41079 2
44.9663 49.6509 27.6821 1295 2
46.5729 51.4382 26.5343 394 1
47.4576 50.9545 28.985 25836 2
45.2199 52.8097 28.6948 1389 2
49.8016 49.0387 27.1395 2213 2
49.0472 51.9674 25.6904 3092 2
52.4508 50.3119 26.2686 25001 2
50.0582 51.7155 28.6026 4065 2
52.1902 50.0216 28.7178 1301 1
55.6614 50.9989 26.6722 1268 2
53.2475 52.4336 28.2799 25885 2
60.4829 48.8126 27.6358 2172 2
57.9427 51.0273 28.3906 1310 1
58.2147 49.4215 26.4256 19470 1
59.7543 51.568 26.893 3150 1
57.6793 52.9684 27.0583 1267 1
62.3874 50.9094 26.7565 19483 2
64.7601 51.6857 27.5012 20397 1
64.4564 52.2173 25.3417 18526 1
65.1915 49.5502 25.8143 20344 2
67.2434 51.7965 26.3541 19482 2
68.9544 50.3477 28.0178 1224 1
66.3892 50.1921 28.8654 20351 2
68.1878 52.8627 28.963 20391 2
70.5316 51.6965 26.1818 19488 2
71.5545 49.1055 27.9528 2268 2
73.7257 51.2091 27.312 19532 2
71.0595 51.8561 29.0072 20394 2
19.1548 54.9081 26.3365 63500 2
21.3031 57.4253 27.1355 48680 2
21.5454 54.8656 25.3919 63481 2
23.8744 53.858 26.7053 63235 1
24.1079 56.4148 25.5258 63634 2
22.0891 55.164 27.9634 63046 1
25.0999 55.4603 28.4081 63188 2
23.5296 57.4665 28.2461 63485 1
27.8895 54.4075 27.3009 2089 2
29.6783 56.8349 27.409 3022 1
26.8574 57.2473 26.529 63479 2
29.3829 55.2829 25.2638 40191 2
31.1444 54.7639 28.022 40239 2
74.7981 30.278 62.9929 29401 1
32.2459 55.5119 25.521 42703 2
33.7069 55.5407 27.6601 41977 1
17.7368 57.2514 55.719 9556 2
35.2175 53.5754 26.8076 41170 2
37.1108 55.54 26.5542 477 1
38.6437 56.7732 28.2833 3191 2
37.5489 53.3211 28.9429 2199 2
35.8135 55.8191 29.0299 376 2
39.2212 54.1996 26.7917 19545 1
39.5086 56.4304 25.0663 1343 2
27.8911 52.6306 25.1483 50477 1
74.9997 59.1022 59.6885 9800 2
42.265 53.795 28.2588 1388 2
41.0984 56.0816 27.2804 481 1
43.9866 54.9413 26.583 1386 1
40.0972 54.6522 29.2906 2201 1
43.2333 56.6096 28.6959 2289 2
46.2461 53.7425 26.3037 2240 1
47.8331 55.5498 25.5771 1348 2
45.8333 55.3478 28.1632 1347 1
47.5777 56.8133 28.1432 1393 1
48.2001 53.9369 28.2656 1297 2
50.9513 53.5317 26.8151 19565 1
50.1421 56.0347 27.4147 20463 2
52.0357 55.5774 25.8595 1399 1
51.2769 54.0777 29.3095 1394 1
53.285 55.4982 28.7134 1397 2
55.4371 54.1473 27.5936 19469 1
54.4305 56.3791 25.7671 20435 2
53.7117 53.7231 26.0824 1352 1
55.7147 56.4709 28.512 19657 1
55.8324 53.3767 25.3146 19473 1
57.0136 55.4391 26.0962 19517 1
59.5508 53.157 28.7154 19379 1
59.942 54.582 26.3195 20390 2
58.2807 55.57 28.4333 25887 2
61.3048 56.6664 27.366 25865 1
58.994 57.0566 26.3244 18630 1
62.3453 53.9689 27.7417 19476 2
65.2462 54.1398 27.8965 19486 2
64.0025 56.9105 26.8129 19570 2
63.3094 54.6319 25.2759 18633 2
66.1343 54.9231 25.3054 19581 2
67.6552 55.3647 27.4481 19585 1
69.2627 56.6684 25.4859 19586 2
68.7376 53.7662 25.8442 19523 1
68.9962 57.3877 28.9373 19626 2
70.4781 54.6106 27.5586 19524 2
72.9645 53.5204 28.7779 20447 1
72.9276 53.7595 26.4334 20402 1
73.5783 56.2769 26.4081 20444 2
74.5115 55.5146 28.9394 20446 1
71.1598 57.3917 27.1393 20488 1
18.3636 58.1598 26.238 63187 2
21.0843 59.8313 25.7438 63438 1
19.2996 60.3491 27.359 63040 1
19.2906 58.3837 28.9623 63185 1
22.1301 60.0665 28.2908 63183 2
23.5378 18.4579 67.078 49132 2
24.0626 59.6329 26.4611 63433 2
25.7212 58.8537 28.8528 53648 2
26.2473 61.22 28.1655 63042 1
28.6553 59.6313 28.1502 63272 2
26.8662 59.9466 26.2767 63410 1
29.7318 60.9403 25.9505 53557 1
30.0157 58.5461 25.4933 25023 2
74.9062 23.5321 39.3039 1520 1
32.4518 57.817 27.2362 2982 2
31.1844 60.7006 28.45 3012 1
34.0004 59.6759 28.201 24941 1
32.5697 60.5885 26.1331 1382 2
35.5982 57.8283 27.2432 428 2
35.6993 60.7532 26.316 24999 2
37.6694 58.189 25.4636 1338 2
38.2266 59.5176 28.0275 1385 2
39.4771 61.8636 26.5666 24937 2
41.0033 58.855 26.6368 429 2
42.3043 61.1317 27.1347 19607 1
43.5292 59.058 27.9065 1387 1
43.7146 61.6557 29.2898 1441 2
43.5924 59.875 25.2395 479 2
40.9034 58.3248 29.2415 2333 1
42.9101 56.9609 25.3149 435 2
45.5095 57.4337 26.2938 1390 2
45.7301 60.9008 27.178 1445 2
47.7571 59.5071 28.7428 2294 1
48.3742 58.5905 26.3668 1447 2
48.3219 61.24 26.7362 1444 1
45.603 58.2606 29.3598 20511 2
52.3844 61.4506 25.4122 2342 1
51.6806 57.802 25.915 491 1
50.7344 60.1429 26.7844 19569 2
51.8585 60.5787 29.3444 25035 1
50.1906 58.4591 29.2791 3201 2
49.1842 61.7288 29.1893 2387 2
53.0596 58.2889 28.1885 1398 2
56.4738 58.5882 27.2742 448 2
53.6095 60.8379 27.5378 24996 1
54.2475 59.367 25.3655 20473 2
55.9314 61.1711 27.9565 25862 1
55.0393 61.9283 25.7276 18770 1
58.102 61.0986 26.7106 19618 2
59.5824 58.5221 28.1029 444 2
60.7211 60.941 27.4584 20476 1
59.6917 59.6088 24.8812 19575 2
61.8928 59.1248 26.6041 19572 1
64.1886 59.5918 27.4489 19520 1
63.1221 61.4265 25.8757 19580 2
62.8126 61.2665 29.208 19623 2
62.4838 58.4366 29.2143 20428 2
65.8154 58.3628 29.4166 19578 2
66.2901 60.7322 26.3285 546 2
66.8383 57.8916 26.7063 1420 2
69.5564 59.9415 26.7662 20487 2
67.7379 59.9959 28.6167 20483 1
69.1955 62.1836 29.5381 20492 2
74.3471 61.1821 28.0866 20497 2
72.4254 59.7119 26.2611 20485 2
73.707 58.3122 28.581 20489 2
71.4353 61.8272 27.6521 21396 1
70.9721 61.5504 24.9869 19632 1
71.0919 59.4499 29.364 20537 2
37.7789 18.2801 62.922 16756 2
20.9046 62.5183 26.5367 63425 2
20.3111 65.7845 26.4925 54635 2
17.7424 65.0595 27.1637 55588 1
18.9516 63.5498 25.5415 53783 1
19.8369 64.2784 29.2765 63146 2
41.6345 29.1687 25.1119 1897 1
22.1788 62.5684 29.3375 63233 1
24.1695 62.5143 26.9993 54632 2
25.5316 65.3163 27.3693 63028 2
22.4951 64.7302 28.0318 48872 1
22.5411 64.5499 25.1878 63600 2
28.8852 62.1407 28.7431 48774 1
27.588 62.5918 26.2691 63227 2
27.7193 65.6701 25.4569 5799 2
29.073 65.0409 28.0594 63176 2
26.7558 63.404 28.7747 63043 1
30.8174 65.4198 25.2642 5309 2
30.9423 63.0458 26.8924 24954 2
33.8668 62.2724 28.4663 3025 2
33.8342 63.6486 26.1366 19499 2
32.2508 65.0025 27.8905 2284 1
36.9759 62.0966 28.2371 20458 1
37.0262 63.3312 25.8002 2288 2
39.0188 65.5892 26.5125 2328 2
35.913 64.7601 28.453 3184 2
38.8785 63.628 28.908 1384 2
35.7962 66.1248 25.5461 24997 2
41.6659 63.6895 27.5945 1439 2
40.7886 65.9917 29.0582 2331 1
43.9852 63.0424 26.6988 1391 1
43.0304 65.0633 29.4356 18756 1
41.9362 62.0431 25.1279 25906 1
40.4724 64.1685 25.0555 2286 1
44.6221 65.7637 27.1354 1442 2
47.3233 63.6592 27.1693 1443 2
45.0659 63.6441 28.7167 1438 1
45.8061 64.1493 25.1719 19616 1
50.0293 62.8515 25.5231 19660 2
49.6159 64.0928 27.9417 25036 1
52.1218 63.1135 27.6633 19617 2
51.3194 65.9184 28.9928 2388 2
52.8203 65.7896 26.1788 2381 2
54.841 64.0325 26.9619 19665 1
56.6825 63.5239 28.5954 20518 1
53.8912 64.7288 29.0215 1490 1
57.4618 63.8658 25.9357 20521 2
60.2432 65.4891 26.7332 19670 2
57.8691 65.6376 27.967 20522 1
59.3983 63.1947 28.8609 20525 2
60.4817 62.7074 25.4426 18729 2
61.935 63.4042 27.8432 25860 1
64.7624 63.3006 27.0702 19625 1
62.6934 64.2318 25.5189 1455 1
64.8264 65.5831 25.7775 2354 1
63.2325 65.5672 27.4735 19624 1
63.906 64.049 29.5054 20575 2
66.2049 65.6779 28.0053 21433 2
66.8881 64.0389 25.8017 602 1
67.4435 62.7704 27.7813 20533 1
69.9124 63.7399 26.2333 20527 2
68.6199 64.6882 28.7656 25854 1
69.1821 66.2391 29.2059 23502 2
45.0125 23.2485 24.9212 39923 1
74.5805 65.6533 26.8926 22590 1
73.1472 63.3207 26.122 19679 2
71.5996 65.9736 27.1298 21693 2
71.0921 63.9632 28.7702 19639 1
73.7832 64.2703 29.1631 22549 2
18.9459 67.9994 27.077 54678 1
21.3399 68.7186 26.5917 63142 1
21.0051 67.4643 29.169 63177 2
18.5296 66.4996 28.6626 50692 1
18.1088 68.6995 29.4037 55780 1
20.1275 70.4193 28.4869 54810 2
19.5168 70.4578 25.3258 54856 2
22.9952 66.7953 26.8067 63141 1
23.1649 69.1722 28.4604 54677 2
25.1609 67.9481 27.0367 63140 1
23.9155 69.4212 25.3091 48693 2
23.8033 66.6145 28.9197 55685 1
25.5771 70.4744 27.6117 63124 1
27.9101 67.9232 27.7356 63144 2
26.7211 68.9191 25.4701 55682 1
29.4132 67.8144 25.5753 1383 1
29.9524 70.256 26.9288 63139 2
30.9574 67.5267 27.5706 63037 2
33.2612 66.2622 26.2133 24853 1
32.2313 68.6881 25.2975 63014 2
34.3513 68.3159 26.8045 48819 1
32.9602 69.8537 28.5346 4408 2
34.0801 67.0538 28.9703 5806 2
38.4588 66.4585 28.9579 2332 1
35.7056 70.1416 28.0495 3598 1
37.0689 67.8512 27.3993 2373 2
38.1528 70.4807 25.6093 4204 2
38.6037 70.3685 28.1127 2419 1
64.9369 74.9823 52.74 25668 1
42.1065 66.3875 26.8609 572 1
40.2005 68.2684 27.3501 1482 2
42.8562 69.0312 27.2163 579 1
41.8319 70.0134 29.0675 1485 1
43.0501 67.5967 29.2814 2420 2
43.3906 67.7837 24.9581 527 2
48.3591 18.2961 73.3363 16028 2
48.0346 66.27 28.7076 19614 2
47.0355 66.657 26.0612 525 1
45.5456 68.2504 27.5914 578 2
47.6986 70.018 29.1255 3294 2
44.5785 70.4757 26.0923 530 1
48.2239 68.6365 26.7183 1528 1
49.8821 66.2922 26.2172 1446 2
49.8538 68.2175 28.4056 2338 1
51.0072 69.1893 25.977 1488 2
52.367 68.1167 27.945 2427 1
48.7828 70.2336 24.9412 1535 1
55.3393 66.547 27.2561 2430 2
54.0086 70.0473 28.4277 1533 2
56.0404 69.3635 26.7257 2425 1
56.5868 68.2524 29.0122 2439 2
53.8574 68.6752 25.3171 19710 2
53.8857 67.3186 29.4957 2384 1
60.6967 69.0947 26.3062 19718 2
59.1893 67.5493 28.5175 20569 1
58.4212 70.0392 27.8896 25855 1
57.8892 67.7085 26.0932 25882 2
61.9425 67.5594 28.0645 20571 1
62.3887 66.8896 25.4037 18779 2
64.5452 68.1751 26.8614 20529 2
62.9695 69.7817 28.2612 21735 1
63.0476 70.825 26.3513 25856 1
68.7724 66.4073 26.2411 18736 2
70.0536 68.5842 27.3749 25816 1
69.0537 69.1647 25.4227 18741 1
67.5839 68.6454 27.8061 22589 2
28.1652 18.2453 53.2962 6454 2
70.9056 67.8887 25.0526 2396 1
73.1876 69 26.3995 2592 2
71.9293 68.2169 28.5578 25853 1
74.1008 69.8112 28.7224 21748 1
74.2661 67.1521 28.8972 22592 2
70.9043 70.3944 25.7981 21785 1
18.6912 73.1814 28.2325 54859 2
18.9976 74.501 25.7185 63363 2
21.5468 73.8857 27.2416 63116 2
21.9397 71.1091 26.4199 63128 1
24.2841 72.4782 25.9035 63118 2
23.2609 71.8918 28.1708 63010 1
25.764 72.8209 28.1842 48908 1
23.9959 74.6907 28.9105 4505 2
26.4448 74.1905 26.1538 3538 1
28.1407 73.4844 28.2217 4507 1
27.5932 71.8093 26.1575 63125 2
30.544 73.343 26.5819 3587 2
27.6264 70.865 29.1886 4452 2
17.7758 41.1488 34.0578 63086 2
30.7733 72.4337 29.1983 3543 2
34.6622 71.9424 26.667 21775 1
32.2574 71.3184 26.4711 4458 1
33.4379 73.86 28.0166 3599 2
33.1108 73.2896 25.4147 4512 1
34.6417 71.9601 29.3723 3544 1
38.7774 73.5777 25.6442 22511 2
36.9372 72.2636 27.4679 3597 1
39.3124 73.3569 28.4828 4520 2
35.7424 74.5922 26.0537 3602 2
36.3345 74.1999 29.3014 23876 2
74.8699 47.5336 33.5911 3018 1
42.7138 73.0851 25.3087 577 2
40.9382 71.2482 26.7642 2374 2
42.5703 73.4374 28.3093 1532 2
40.8783 74.416 26.4833 19699 1
44.4063 71.0572 28.6842 1483 2
47.0074 70.8626 26.7324 3300 1
45.3732 72.8795 26.4387 1487 2
47.023 72.9809 28.8318 2424 2
48.5335 74.6754 26.9299 1531 2
49.4291 71.6279 27.3484 2426 2
51.2738 73.8453 27.4888 21736 1
52.3259 71.9761 28.6818 22630 1
52.2862 71.5085 26.5009 2431 1
52.7897 74.5394 25.4245 22631 2
54.0313 73.213 27.493 21526 1
54.831 71.7095 25.4526 25821 2
55.5136 74.5747 28.7065 21729 1
56.5666 72.0594 27.9228 21476 2
55.4681 74.4602 26.066 12850 1
57.3545 73.2211 25.5398 2432 1
58.4291 71.0191 25.4383 19667 2
58.3243 74.5344 27.6001 20618 2
60.6344 71.9245 27.3392 20619 2
60.1477 73.7875 25.0827 21788 2
65.7736 70.9982 26.818 20824 2
63.3279 73.5324 26.3705 22588 2
64.1928 71.8104 28.7114 25778 1
63.7619 74.2865 28.8031 23542 1
67.8031 71.1768 24.893 21740 1
27.9872 39.1485 74.8564 13912 1
68.6368 71.3522 27.4732 21737 2
66.474 73.7303 25.9178 21781 2
66.4708 73.4315 28.9853 22638 2
41.6859 54.1452 24.9492 431 2
71.4782 70.9582 28.4224 22642 2
71.5517 73.7524 27.8108 25817 1
73.1257 72.2621 26.1765 20834 2
74.0438 72.494 28.7062 21791 2
21.017 19.3706 31.8598 2716 2
19.2293 21.9326 32.086 20051 2
17.8295 19.1234 31.5502 59349 2
22.1336 21.2196 29.6037 25064 1
23.6644 19.1848 30.0343 20009 2
24.8153 22.0295 30.1839 24990 2
24.0431 20.417 32.7766 3701 2
26.3387 18.7408 30.7561 784 2
74.8368 63.7213 42.3947 24358 1
26.842 20.9615 32.2422 2772 1
28.3141 21.0706 29.798 2717 2
28.8613 19.0402 32.0554 1847 2
29.2536 21.692 32.4877 2776 1
30.6501 22.3084 30.8294 936 1
26.5711 18.6983 33.8734 3652 2
31.1217 19.6646 30.2291 1891 2
33.9508 20.2287 31.713 987 1
31.6114 20.5122 33.0479 3653 2
34.3433 22.1132 33.8965 1948 2
35.3047 19.3723 33.9334 3660 2
32.9007 18.2025 33.9281 21878 1
74.796 34.3663 59.8149 29793 2
36.0645 19.4462 29.1171 20120 1
38.6735 19.249 30.2024 21910 2
36.223 21.2693 31.063 1900 2
38.6862 19.2746 33.3061 3663 2
38.9118 21.8005 32.0538 3662 2
36.5379 18.6246 31.5391 3659 1
39.9226 21.5634 29.5926 3657 1
42.1816 20.024 30.5273 22582 2
41.21 20.3461 33.0386 25771 1
43.7685 19.1869 33.2884 3667 2
45.1089 19.9814 31.377 12875 1
45.8449 22.0518 33.4015 2791 2
46.881 19.0789 33.6159 21060 2
48.0869 19.9639 31.081 23264 2
46.2326 22.2126 30.5143 4627 2
48.6128 21.9792 33.0666 2736 2
50.208 21.4151 30.8567 21895 1
51.3479 18.7489 31.028 3670 2
49.8072 19.4586 33.1251 22528 1
51.5247 21.4627 33.7936 22570 2
53.108 21.2979 30.6185 2785 2
53.462 19.9434 33.201 21898 1
55.8885 20.9191 29.8707 23127 1
55.8159 20.2351 32.3865 22564 2
54.4344 18.4881 29.9172 22533 2
54.387 22.093 33.4818 2851 1
57.718 18.7401 29.7035 11602 2
58.2168 21.3815 30.6405 23632 1
58.493 19.4523 32.883 21893 2
59.9723 19.675 30.5879 20993 1
60.6687 21.5279 32.2649 20141 2
58.0404 22.2674 32.9281 12459 1
61.5856 18.3188 32.3372 22527 2
62.1441 20.7176 29.7491 38322 2
64.6873 20.3707 29.8445 12897 1
63.6498 20.4093 32.4432 25850 2
65.7534 18.9743 33.4734 31025 1
54.9954 71.8964 74.7112 26542 1
66.4361 21.4117 31.7291 11550 2
68.7772 19.5941 30.8257 30802 2
68.1639 19.428 33.967 30814 2
70.3503 20.3839 32.7253 1659 1
67.6691 22.2802 33.9463 12415 1
71.9432 19.9968 30.3165 22613 2
74.3031 21.3326 31.2226 30808 2
72.741 19.7149 32.8984 12506 1
72.1749 22.0295 32.5599 11516 1
74.8866 47.8912 58.1803 29723 2
20.4384 22.8887 29.6999 1887 1
18.9654 24.1903 30.5126 1930 1
21.0957 25.302 30.8706 2818 1
19.8944 24.7433 33.2162 2809 2
21.9664 22.5433 31.9862 1841 2
23.0071 23.8738 29.4531 1886 2
25.3608 25.0703 30.5763 976 2
25.2426 23.2727 32.8036 2770 2