ITEM: TIMESTEP    
120000     
ITEM: NUMBER OF ATOMS  
77888     
ITEM: BOX BOUNDS pp pp pp
17.607 132.393    
18.0782 131.922    
24.5757 125.424    
ITEM: ATOMS x y z id type
19.8444 20.2787 25.2843 72779 2
19.619 20.157 28.7505 1881 2
21.7538 22.1658 26.6443 977 2
21.7373 19.0434 27.2744 1839 2
25.6539 19.4547 25.9831 23170 1
23.9066 20.8403 27.3446 1848 1
25.9401 20.004 28.3629 22628 1
24.8486 21.8489 24.8199 926 1
27.9312 19.0068 25.2158 72824 1
30.0645 20.4682 26.7304 20062 2
27.2542 21.7179 26.4538 1846 2
28.1234 18.5641 28.0359 1845 2
75.0742 42.3785 71.3071 28514 2
33.0531 21.0554 26.378 43709 1
32.2604 21.7811 28.4224 25026 1
32.2404 19.0089 25.9746 2719 1
33.4059 18.8614 28.4032 23637 2
34.477 21.1607 28.8791 2726 1
53.8683 75.2064 49.8744 18944 2
35.6142 20.2842 26.3681 1851 2
38.6415 21.0817 25.6984 22537 2
37.3629 21.7753 28.3926 1899 2
39.5313 18.6149 25.139 1904 1
37.8821 18.8116 27.3917 22536 2
35.9187 19.4231 29.394 20120 1
40.7835 19.9595 27.4714 1854 2
43.464 18.7716 27.877 23128 2
41.237 20.3844 24.802 43666 1
43.1084 21.8388 26.4573 40934 2
42.0946 22.4206 28.7828 3665 1
17.9239 71.9439 25.9652 63105 1
44.1809 21.0729 28.9581 21871 1
45.435 19.862 25.6716 1099 2
47.9763 20.7785 26.3089 40834 2
46.3547 19.3726 28.6672 22576 2
48.6781 21.6382 28.6983 1908 1
50.6936 18.9232 25.6918 38521 2
50.429 21.8374 25.6651 40893 1
52.433 19.5901 28.2527 22574 1
51.1668 22.0605 28.1142 1110 2
49.7441 19.2755 28.4596 22529 2
53.1147 20.8648 26.0909 38365 2
55.6432 18.9193 25.5533 21944 1
55.1832 19.817 27.5588 12513 1
55.8984 21.5742 24.8497 39988 2
57.3439 20.9893 27.7435 13500 1
60.6551 21.6471 25.3099 31298 2
59.8597 19.5212 27.4642 19184 2
60.0237 22.0972 28.4184 31285 2
60.9396 18.9044 25.2313 31004 1
58.2141 19.7632 25.3209 38509 2
57.5634 18.6016 29.3732 11602 2
21.056 35.7929 24.7548 63683 1
64.9586 21.3446 27.243 21892 2
62.6403 20.4493 26.6092 31021 1
65.0434 19.3349 25.1976 30371 1
52.4951 61.5875 24.4599 2342 1
67.5715 19.6491 26.0848 31023 2
69.6073 21.1828 28.0778 19245 2
67.0137 20.1783 28.766 20998 1
67.7433 22.0815 26.2595 31293 1
70.3809 18.437 28.1995 38366 1
70.2775 22.605 25.0506 31019 2
71.7143 20.3289 26.653 30996 2
73.5878 21.7275 27.8467 12413 2
73.515 18.4553 28.227 21403 2
74.9846 19.6451 25.8866 31289 2
20.5032 23.8735 24.7017 19183 2
18.64 25.1993 26.0917 970 1
18.4972 22.5907 26.8843 1928 2
20.4284 25.4201 27.9253 1885 2
21.6268 26.7299 25.8574 52493 1
22.692 24.6256 25.8924 25062 1
23.4592 25.8088 28.032 1888 1
24.7427 23.4029 26.9573 25024 2
25.9037 25.5846 27.5007 1945 1
24.6994 26.9609 25.5513 25061 2
29.4271 22.8158 25.3508 1895 1
26.8748 23.5275 28.4476 1884 1
27.5995 24.6061 25.7468 1943 2
30.229 25.784 26.963 40920 2
29.5643 22.9976 28.1203 1944 2
31.8952 23.5749 25.7599 989 2
33.0953 26.2668 26.9181 1035 2
31.9766 24.413 28.4954 25060 1
34.5802 23.2928 27.3915 25027 2
36.5561 23.3111 25.2799 40928 2
37.5435 24.6407 27.6241 2729 2
35.5786 25.6577 26.3214 40922 1
39.5447 25.8793 26.2131 2836 1
40.0258 23.364 27.0946 3770 2
41.7429 24.6299 25.6256 1956 1
42.3813 24.6764 28.0689 2782 1
44.0407 24.4807 26.1496 41801 1
40.4082 26.3612 28.6264 1958 2
44.3578 23.4833 28.9939 22532 1
46.0386 22.4613 27.3032 43705 2
46.4464 25.5608 25.9612 40939 2
47.0085 24.5313 28.5818 1153 1
44.6482 26.1474 28.408 2837 2
45.1328 22.737 24.8902 39923 1
49.0124 23.962 26.9344 40989 2
52.1722 23.8265 25.8713 19180 2
50.8493 26.2962 27.2085 2020 2
52.4484 24.5742 29.1704 2024 2
54.7497 22.4865 27.9646 23176 2
53.6185 26.1043 27.1408 23642 1
55.1738 24.4114 25.6452 40025 2
55.1941 24.8957 28.5573 40030 1
57.2904 23.4135 28.6273 23172 1
62.3447 18.1731 27.5546 31001 1
57.4765 25.7696 27.3758 18330 2
58.1662 22.9437 26.2907 38629 2
59.9782 24.8805 28.0125 20148 1
60.7258 24.5895 25.6107 199 2
62.6838 23.3129 27.4763 19285 2
65.1147 25.2423 28.526 20106 2
65.0695 23.903 26.1395 18327 1
62.8678 26.2872 26.3358 19229 2
65.774 26.4743 26.3502 18337 1
62.9689 23.1204 24.7921 30803 1
69.7909 24.1393 27.2714 1065 2
67.7202 25.8787 27.7039 19241 1
67.5873 24.6244 25.2907 31294 2
67.2415 23.0925 28.5727 31002 2
73.5754 25.282 25.0986 44079 1
72.464 23.7852 26.7816 12457 1
72.0651 26.0527 26.873 30290 1
74.6332 24.7235 27.4118 43162 1
70.6118 25.4992 24.8741 44061 2
74.7306 22.6744 25.4932 39972 2
72.158 25.3977 28.967 19299 1
18.3893 27.2952 27.8079 63548 1
19.7489 28.6595 26.0598 1933 2
21.8223 30.6679 27.4654 1071 2
62.4119 74.7343 37.4808 22682 1
22.7138 28.0916 27.4501 63545 1
24.4691 29.7435 26.4595 1023 2
25.4294 28.0124 28.7282 1025 2
26.5748 28.9941 25.237 986 1
26.6336 30.2547 27.8365 40916 1
27.6116 27.6673 27.0867 39954 2
28.6449 30.1816 26.1524 19240 1
29.2939 27.9761 24.9678 41796 1
28.9557 29.9568 29.0595 1947 2
30.0356 27.6479 28.9496 1949 1
30.6418 28.6439 26.8965 983 1
25.7744 74.6187 32.0206 5406 2
32.6553 28.4683 28.719 41845 2
33.4188 29.6354 25.9951 41885 2
33.9106 30.847 28.232 1033 1
31.8092 27.1229 24.866 43811 2
37.5232 26.52 25.2816 2779 1
36.7871 29.9472 24.5318 2000 1
35.6734 28.4399 27.2967 40926 2
37.8471 29.9849 27.2607 2010 1
38.1768 27.3499 27.3432 1083 1
39.2102 28.4912 25.2985 1907 2
36.2359 30.3903 29.3131 4713 1
42.3602 27.1064 26.6119 41842 2
43.4649 29.982 26.849 43703 2
40.536 29.4376 27.5414 40975 2
74.6047 57.6541 69.0023 28419 1
45.0992 28.0588 26.494 40985 1
46.6441 30.4043 26.1176 41032 2
47.975 27.4701 27.2195 40935 2
45.6352 29.2364 28.6133 41849 2
49.1427 29.9542 26.9645 1954 1
50.8002 28.4947 25.8433 42717 1
51.009 29.0448 28.0747 2027 1
51.985 30.9197 26.243 1163 2
18.6321 43.4327 71.475 62108 2
66.0607 54.7859 24.8725 19581 2
53.1345 28.4039 26.9602 40996 1
55.2976 27.7747 28.4851 20144 2
55.1793 30.5694 26.7065 248 2
55.5636 27.5693 25.4231 19382 2
34.0008 18.0067 31.1161 22538 2
58.3714 27.0591 24.8408 19227 1
59.9408 27.0626 26.7227 246 1
57.8261 28.8934 26.923 19231 2
61.3236 29.3124 25.8684 2792 2
60.4927 30.5274 28.3856 200 2
59.259 30.9357 25.8392 1109 1
62.1814 28.1835 28.1007 19243 1
64.4396 28.9589 26.0947 19242 2
63.7013 30.5243 28.0664 20214 2
68.6042 27.6692 25.3106 30998 2
70.0309 27.3451 27.854 19186 2
67.2805 28.6766 27.633 12515 2
69.8206 29.685 26.3028 43818 1
66.832 30.4064 25.2891 30833 2
69.3964 31.0563 28.8649 20158 2
74.5544 27.5546 26.5411 30993 2
71.6536 29.6997 27.634 19294 1
73.6422 30.4382 26.4674 43804 1
71.8534 28.3291 25.1728 18339 2
72.7625 27.6621 28.5579 18336 1
74.4328 29.5547 28.9496 19300 2
20.4911 30.8325 24.9627 72807 1
18.2981 31.441 26.4472 63536 2
18.3316 34.9223 26.8908 1017 2
21.8517 33.2063 26.126 1060 2
20.212 32.5681 28.6674 1934 2
19.5865 33.5151 25.0223 74584 1
20.7651 35.3253 27.6857 63543 1
24.4762 32.0744 27.8363 63681 2
24.4212 34.4468 26.4092 43702 1
22.8326 34.2545 28.4241 1069 1
23.7114 32.0644 24.6396 72814 2
26.5591 34.0184 27.3257 1070 1
28.6215 32.3912 27.3192 40965 1
28.8268 34.3283 25.5644 1031 2
26.5831 31.8402 25.4983 40917 2
28.3547 34.697 28.7164 1989 1
30.4827 34.1033 27.867 2916 1
29.5557 31.9644 25.0514 979 1
31.1443 31.3241 27.2787 1940 2
34.8472 34.7421 26.9556 24974 2
33.6545 32.4385 26.4828 984 1
32.0142 34.4658 25.9934 1029 2
35.9786 31.6215 26.5574 41893 2
39.0668 32.2872 26.2198 1199 2
37.2867 34.6255 25.7138 41937 2
37.1768 33.4662 28.0648 1080 1
39.7354 34.6698 28.0287 20283 2
39.7472 35.2716 25.1795 19202 1
38.66 31.6866 29.289 41895 2
41.2116 31.2685 25.7433 42701 1
41.621 34.0381 26.3578 2002 1
43.386 32.7446 25.0623 41848 2
41.8203 32.363 28.3153 2004 2
42.4323 35.4239 28.3895 2944 1
44.3179 35.3493 26.5323 2990 2
47.3913 31.5963 28.3221 2942 1
47.1789 34.257 27.4226 2067 2
44.9079 32.3898 27.5998 43700 2
46.3841 33.0951 24.8616 197 2
74.95 61.2091 72.2018 27659 2
49.7316 32.6139 27.4611 237 2
51.759 34.7448 28.2584 2022 2
51.2549 33.6456 25.4742 291 1
52.5132 32.4351 28.6799 2902 1
49.7577 35.171 26.8615 41035 1
72.9695 74.8736 53.4905 27165 2
56.7466 34.5205 26.4845 19334 1
53.8894 33.3907 26.5396 20251 2
55.564 34.5118 28.6319 1208 1
57.3365 31.9028 27.6962 2077 2
17.6263 57.3523 63.6663 12271 1
59.2503 33.7059 26.0493 241 2
60.3778 33.7188 28.6152 19233 1
57.9971 34.4012 28.722 19235 1
42.9047 18.2796 24.9193 23153 2
62.0074 32.4371 26.3449 1112 2
62.4683 34.8081 27.3969 43165 1
64.5542 31.7155 25.8074 18380 1
64.4154 33.391 27.6558 19341 1
64.5238 34.9494 25.5672 19232 2
66.2658 34.9638 27.5178 19339 1
66.5783 31.7857 28.1113 19289 2
66.711 33.1967 25.8921 19288 1
68.7105 31.6527 26.3926 20162 1
68.539 33.805 27.448 19293 1
73.7974 32.5375 25.2225 19297 1
71.554 32.3304 26.8063 19246 2
73.7678 34.7386 26.5833 43988 2
74.6594 32.5006 28.0646 19301 2
71.3817 34.126 28.9365 19295 2
72.4384 31.3981 29.1332 19296 1
70.6265 35.4654 26.4118 19349 2
20.0845 37.1346 26.4833 63542 1
19.4319 74.8646 63.0634 10800 2
21.8526 38.8636 28.386 1979 2
19.6782 39.8607 26.7555 63537 2
24.5788 36.9952 24.9239 2034 1
22.8578 36.5041 26.7817 1988 2
24.7462 38.8985 26.675 2036 2
25.758 36.3633 28.3206 1075 2
29.904 36.6672 27.461 1074 2
27.2089 37.0008 25.6387 41015 2
29.762 39.566 26.1764 1028 2
27.7457 38.7841 28.0406 1122 2
51.4534 74.9933 31.0423 23480 1
34.9885 38.1882 27.3551 2829 2
32.0586 38.516 27.3362 1079 1
33.1102 36.8161 25.9016 41936 1
32.8891 36.3823 28.7158 1997 2
21.8956 18.1184 45.7265 6385 2
32.5084 39.3933 24.812 1135 2
38.6812 37.3459 26.1782 41068 2
37.509 38.674 28.7154 2061 2
37.2331 36.3064 28.4684 1995 2
41.3307 36.6981 26.6613 40988 1
41.9481 38.762 25.1277 1204 2
42.8437 37.9728 27.9358 2066 1
40.0949 39.8118 27.3954 41984 2
39.6344 39.8913 24.5751 42706 1
40.2831 37.3751 29.1737 41994 2
17.7934 72.7254 57.6308 9865 2
44.9881 38.6249 27.264 41031 1
47.9794 37.0587 27.6009 330 2
46.5619 39.0653 24.9732 286 2
44.4809 37.4494 25.3 1159 1
46.504 36.2173 25.2292 1197 1
45.4342 36.4418 28.9147 2995 2
51.8947 36.3383 25.742 1155 2
51.0418 37.6861 28.206 1162 2
49.3642 37.7274 25.253 40108 2
53.6092 39.1683 26.6369 18473 2
54.6759 36.2661 26.6877 20297 2
55.368 38.3309 28.529 388 1
57.2 39.3245 26.8411 18430 2
57.1994 36.6919 27.9234 19276 1
17.6709 69.8347 62.8319 10743 2
60.3875 38.8689 25.4274 18381 2
59.9608 36.1117 26.9358 2121 2
59.3185 38.4581 28.1241 18376 1
57.4446 36.7971 25.1256 288 2
62.4479 36.8638 26.1154 1119 1
62.0659 38.8038 28.0592 19286 2
64.0018 36.5478 27.8158 20213 1
65.1223 39.1776 28.3081 20260 1
63.9558 39.4259 26.1463 44031 1
65.9505 37.5653 26.2082 19281 2
66.4586 37.0266 29.0796 20208 1
67.757 35.3887 25.6193 20215 1
68.852 37.5653 26.3656 19290 1
67.6809 38.9728 28.0833 163 1
69.0325 36.3539 28.9798 19291 2
70.779 37.8997 25.0336 18383 1
70.8144 38.6368 27.9048 18437 2
72.1939 36.3151 28.1814 25899 1
73.9924 38.3275 28.504 19352 2
72.8544 37.5172 26.0723 18386 1
74.6092 39.1424 26.1348 18489 1
19.4422 42.794 27.8059 63648 1
20.3973 42.3168 25.8667 63678 1
21.5536 41.8704 28.2437 63529 1
22.5232 40.3512 26.2156 2045 1
22.7004 42.8068 26.5476 21093 1
23.7032 40.922 28.3801 2039 1
25.0974 41.9597 25.9263 41066 2
24.3385 43.5288 28.5345 63091 2
26.5192 43.8458 27.1083 2969 1
26.5135 41.1454 28.2324 2037 2
27.2033 39.8099 24.9725 41016 2
28.4989 42.4632 25.9965 43701 2
30.9843 42.1038 24.6426 41883 2
31.0654 43.4712 27.0546 2090 2
29.558 41.7389 28.9307 25055 2
34.3518 40.8374 26.8271 1998 2
31.8327 40.8932 27.2606 41941 1
33.8196 43.3703 26.4556 2051 2
34.6477 43.1489 29.0006 41940 1
32.5312 42.2414 29.1254 1994 1
37.5233 40.1084 26.0606 41072 2
38.5672 42.2416 28.3331 1202 1
64.2427 75.086 71.8445 29892 2
36.634 43.7258 26.9065 41939 2
36.2952 41.1812 28.848 2053 2
39.3506 42.6386 25.9893 3133 2
41.7801 41.2706 25.6643 1200 1
41.1228 42.3566 28.303 1198 2
43.0952 40.4612 27.4164 25047 1
43.689 43.0769 26.8063 1251 2
41.4527 43.6622 24.6496 41075 1
44.4734 40.8154 25.4453 25049 1
46.5918 42.4267 25.9957 1254 2
48.1477 39.9535 27.1366 2119 2
45.7065 40.9542 28.0634 25018 2
47.2213 44.2729 28.3883 1253 2
50.6247 39.5323 26.3644 290 1
49.3261 41.3055 24.7624 41038 2
49.0891 42.4459 27.3834 2113 1
51.8898 42.0026 26.3275 289 2
50.7398 40.8428 28.6726 2074 2
54.2687 43.8235 25.7466 1307 1
55.2943 41.4486 26.1387 18427 2
54.8015 43.3115 28.1143 39218 1
53.3842 41.4165 28.3523 20299 1
56.9357 44.0613 24.9063 1350 2
57.3355 42.7365 27.6679 19337 2
58.3098 41.516 25.1271 19282 2
60.0512 41.3826 27.4694 20206 2
59.4177 43.9703 26.5536 1255 1
61.413 43.922 28.593 20298 2
61.6945 43.0521 25.7743 18479 1
62.3283 40.8014 25.9516 18379 1
64.1172 41.8287 27.6868 19338 2
63.6218 44.1329 26.5823 18435 1
65.8105 43.4549 25.995 19384 1
66.4483 40.7718 25.9304 18433 2
69.2263 40.4056 26.2689 18439 2
67.7136 43.0945 27.1809 19396 1
69.4253 41.8982 28.6166 19340 1
69.8681 43.6078 26.637 19389 1
66.9457 41.4609 29.0119 20305 2
72.0812 39.7843 25.8728 18443 1
71.3168 41.5014 27.3361 20353 1
73.981 41.1822 27.6967 20361 2
71.7634 42.6528 25.049 19401 2
72.6568 43.9152 27.3201 2141 1
69.163 18.3414 49.097 7630 1
21.4375 44.6642 27.7264 63528 2
18.9498 44.9858 26.3332 63282 2
18.9477 47.3112 27.5768 63280 1
21.1241 47.2739 25.9473 53468 2
20.9847 47.0099 28.8195 48662 1
43.7345 18.2281 60.5397 17600 2
24.1845 45.3627 26.1279 63650 2
23.6937 47.7586 27.2332 2088 1
25.1942 48.2328 25.0608 41060 2
26.1093 46.0381 28.6281 2044 2
28.7097 44.7178 28.65 2971 2
27.3747 46.2845 26.2055 41064 2
29.9458 45.8541 26.4371 2049 1
28.8618 47.4727 27.9927 1131 1
28.5551 48.5661 25.5062 41062 1
31.0671 46.0732 28.6489 2046 1
32.833 46.2192 26.183 2157 2
33.1213 47.1448 28.7264 2922 1
34.9443 48.3297 27.0452 2095 2
35.0629 45.5645 28.3154 3952 1
32.8779 44.7333 28.6109 2979 1
24.35 74.89 52.5615 24613 1
39.3663 44.7689 28.1799 2156 1
39.0933 45.6718 25.722 41124 2
36.1879 46.0659 26.0239 41990 1
37.6265 47.0106 27.9911 2159 2
37.1598 48.0444 25.2729 2155 1
39.5858 48.5319 26.3766 1294 2
41.4378 44.6145 26.766 1249 1
57.9599 74.9801 62.0527 13309 1
40.9876 46.6944 27.8191 1292 1
43.234 46.2144 26.9086 2162 1
75.0843 33.7112 56.6605 25610 2
44.5218 47.6532 24.8696 2169 2
45.633 45.1741 26.33 381 1
45.7334 47.2811 27.5726 21219 1
47.6577 46.4949 26.5588 385 1
48.0998 48.3308 28.2444 2214 1
52.0385 44.6737 24.8902 2120 1
52.4867 44.7858 27.7157 25040 2
49.5139 44.6358 25.8448 340 2
51.4926 46.9081 26.2229 1345 1
52.0615 47.2563 28.6307 1302 1
49.5693 46.253 28.5019 2208 2
55.8779 45.7357 27.1021 1306 2
53.6156 46.3433 25.249 1264 1
53.887 48.2509 27.274 19428 2
57.0786 48.3575 28.3038 21280 2
56.0733 48.4413 25.4665 19426 2
58.6531 45.5518 28.5877 1303 2
58.7179 46.75 25.6949 20346 2
61.5665 46.037 26.5266 20338 2
60.2443 48.8115 27.4288 2172 2
65.9302 44.788 28.4394 21284 2
63.544 45.9075 28.6052 20304 1
64.7186 46.4688 26.1887 19386 2
62.444 48.3962 25.3522 1274 1
65.6963 47.5327 28.5118 25875 1
63.0987 48.4126 28.1466 18534 2
67.9808 45.7425 26.1823 21192 2
68.5824 47.7728 28.4821 19439 2
70.168 45.2275 24.6987 19395 1
69.5299 48.3272 25.4078 18476 2
67.0995 48.5425 26.6478 25042 1
71.0199 46.0027 27.2746 19436 2
72.613 45.2995 25.0599 18542 1
73.004 48.2369 25.7286 19445 2
74.4219 46.2024 27.1451 20313 2
19.1888 49.4225 26.0477 63274 2
17.9665 52.1018 25.9345 54461 1
20.4685 51.8475 24.9987 63632 2
21.5491 49.448 27.8408 48858 2
20.4741 52.7473 27.815 63060 2
18.3538 50.589 28.3582 63275 2
24.2028 49.9723 27.2493 63527 1
22.6975 49.6983 24.7385 48669 2
25.563 51.3928 25.6818 2085 2
22.5176 51.739 26.41 63486 1
26.0712 52.1133 28.3391 63483 2
23.2479 52.4435 29.0711 63234 2
26.4819 48.8121 27.7142 63281 2
28.3353 50.8811 26.6018 24951 2
29.8287 52.8035 25.9604 2040 1
29.6067 52.2461 28.976 2973 2
59.8465 59.5208 24.8192 19575 2
31.0028 48.3848 27.1094 41946 2
32.9956 50.1042 26.1939 41115 1
31.0936 51.1489 27.2757 40237 1
34.8681 51.1057 27.0585 41120 1
74.2136 70.6617 24.41 25851 1
37.3954 52.5727 26.1188 378 2
37.2024 49.8578 26.8962 63642 1
38.7616 50.8948 28.0349 1336 1
37.8319 49.072 29.2706 2197 1
35.9987 50.9441 29.2236 25041 2
40.7822 51.4022 26.2777 1339 2
42.4598 48.8812 26.7415 2200 2
43.7764 51.4467 25.791 383 2
40.5091 52.3927 28.963 24943 1
46.9498 49.1266 25.6647 41079 2
45.3709 49.7539 28.014 1295 2
46.6212 51.6677 26.6185 394 1
44.953 52.9419 28.4144 1389 2
47.7021 50.7388 29.0217 25836 2
50.0652 49.0593 26.7086 2213 2
48.9293 52.0002 25.3133 3092 2
52.2796 50.9869 25.9497 25001 2
50.1817 51.7209 28.3662 4065 2
52.2432 49.9266 28.4385 1301 1
55.6349 51.3996 26.3591 1268 2
52.9462 52.4992 28.2583 25885 2
74.9427 73.3101 35.2792 22651 1
57.8395 51.0511 27.9876 1310 1
58.0414 49.7424 26.1986 19470 1
59.5176 51.5341 26.5234 3150 1
61.9657 51.1271 26.474 19483 2
64.5017 51.7281 27.471 20397 1
64.459 52.3409 25.0805 18526 1
64.8231 49.6077 25.9891 20344 2
67.1356 51.5811 26.228 19482 2
68.7535 50.3896 27.8031 1224 1
66.2378 50.2029 28.9033 20351 2
70.5418 51.6137 26.1317 19488 2
68.1041 53.0291 28.7591 20391 2
74.3297 48.8461 28.5078 25005 2
71.1493 49.1307 27.9001 2268 2
73.3731 51.1006 26.7322 19532 2
70.8089 52.0767 29.1081 20394 2
73.1155 53.2671 28.4466 20447 1
18.8602 54.9601 26.2343 63500 2
21.2 57.0615 26.9561 48680 2
21.7547 54.6051 25.5238 63481 2
35.718 74.9854 67.5019 12487 2
26.0695 54.0857 24.7807 2084 2
24.2106 53.7029 26.5906 63235 1
23.9968 56.4591 25.346 63634 2
22.3769 54.6979 28.0174 63046 1
25.1766 55.4548 28.2353 63188 2
27.8676 54.3746 27.1505 2089 2
29.6097 56.6059 27.0503 3022 1
28.2745 56.6718 29.1088 2195 2
31.0288 54.7177 27.7772 40239 2
32.5321 52.8466 26.0177 2048 2
32.1246 55.8612 25.1598 42703 2
33.5263 55.5688 27.2758 41977 1
35.0412 56.0836 24.5673 41126 2
32.6544 52.6511 29.0575 41114 2
35.1136 53.6138 27.2306 41170 2
36.9965 55.3529 26.3589 477 1
35.839 55.6681 28.6967 376 2
38.6813 56.5451 28.0386 3191 2
37.9278 53.5001 28.8841 2199 2
39.4535 56.2152 24.9368 1343 2
43.8548 74.9352 57.8103 9002 2
42.6323 53.7137 27.356 1388 2
51.2297 75.0717 48.1411 26254 2
39.9893 54.2666 26.7867 19545 1
41.3126 56.1048 27.1116 481 1
43.6145 56.0859 26.3716 1386 1
40.4093 54.794 29.1353 2201 1
45.3393 53.7586 25.8013 2240 1
47.5752 55.6455 25.2094 1348 2
45.5874 55.4556 27.5957 1347 1
47.5332 57.0632 27.2836 1393 1
47.9122 53.9454 27.63 1297 2
51.121 53.5222 26.2581 19565 1
50.067 56.4245 26.8009 20463 2
52.0397 55.4895 25.4001 1399 1
50.3829 54.3047 28.3074 1394 1
52.7907 55.5058 28.1496 1397 2
55.3234 54.4167 27.4274 19469 1
54.5131 56.2646 25.4294 20435 2
53.6389 53.6776 25.8253 1352 1
55.1936 56.8083 27.9067 19657 1
55.7954 53.6131 24.8932 19473 1
57.0989 55.8987 25.4616 19517 1
57.6676 53.1555 26.4762 1267 1
59.4311 53.2236 28.2299 19379 1
59.9515 54.8341 25.9848 20390 2
57.883 55.8388 27.9779 25887 2
61.0987 56.9 27.0608 25865 1
58.9518 57.2484 25.8966 18630 1
62.4214 53.817 27.6855 19476 2
65.3544 54.0808 27.3568 19486 2
63.8751 56.6289 26.6387 19570 2
63.0242 54.5941 24.8965 18633 2
67.6848 55.1009 26.9761 19585 1
68.9003 56.7515 25.0787 19586 2
69.0561 57.1691 28.1099 19626 2
68.6201 53.5474 25.4363 19523 1
66.735 55.441 29.2082 20445 1
70.429 54.5201 27.0811 19524 2
72.8169 53.4661 26.0671 20402 1
73.3679 56.1803 25.7547 20444 2
74.2241 55.3029 28.3691 20446 1
71.2011 57.1667 26.6062 20488 1
17.9241 57.8497 26.0962 63187 2
21.4766 59.4988 25.5401 63438 1
19.4953 59.9076 27.1538 63040 1
19.2361 58.1666 28.7383 63185 1
22.0451 59.798 28.157 63183 2
23.4692 57.2822 27.9818 63485 1
24.5024 59.4552 26.4368 63433 2
26.2515 61.1201 27.662 63042 1
26.0091 58.7392 28.7636 53648 2
22.1292 74.913 45.8519 19682 2
26.8916 57.1661 26.32 63479 2
28.8868 59.4919 27.8822 63272 2
27.3342 59.7568 25.8679 63410 1
29.4779 60.9527 25.7195 53557 1
30.0503 58.2366 25.2842 25023 2
31.9993 57.7884 27.6341 2982 2
35.0973 57.9026 27.1377 428 2
31.1151 60.6949 28.3014 3012 1
33.5664 59.8963 28.1913 24941 1
32.1538 60.7154 25.9888 1382 2
35.3144 60.7937 26.2904 24999 2
32.9989 58.4241 25.12 41981 1
37.5261 57.9483 25.2431 1338 2
37.7655 59.6309 27.8879 1385 2
39.3263 61.5103 26.2002 24937 2
40.5124 58.5594 26.5784 429 2
40.8632 57.864 29.0687 2333 1
41.9481 60.8419 26.6922 19607 1
43.0519 58.5778 27.3993 1387 1
43.6779 61.0894 28.5323 1441 2
43.8584 59.8553 25.083 479 2
45.5422 58.1226 26.1726 1390 2
46.0526 61.1443 26.8474 1445 2
48.4072 58.8528 25.593 1447 2
47.5604 59.4109 28.2923 2294 1
48.4989 61.5531 26.2441 1444 1
51.7178 57.8778 25.2683 491 1
50.8517 60.4572 26.2911 19569 2
75.0037 73.2081 63.718 9898 1
52.002 60.582 28.7702 25035 1
50.0942 58.7143 28.7655 3201 2
52.9946 58.4275 27.4232 1398 2
22.5635 17.9491 40.1431 3644 2
56.4488 58.6755 26.6056 448 2
53.6021 60.678 26.9096 24996 1
55.6316 61.4595 27.5396 25862 1
54.7221 61.9345 25.4484 18770 1
54.9641 59.5281 29.1311 20470 2
40.745 18.1832 32.2743 22535 2
58.0632 61.3657 26.3276 19618 2
59.303 58.6777 27.9209 444 2
60.731 60.8248 26.9472 20476 1
62.264 59.1093 26.2191 19572 1
64.3834 59.4474 27.1515 19520 1
63.2145 61.4441 25.5359 19580 2
62.6741 61.1667 28.7169 19623 2
62.4176 58.3377 28.892 20428 2
65.5464 61.3986 28.7536 20528 2
66.4012 60.931 25.7746 546 2
66.5821 57.9653 26.5304 1420 2
69.3941 59.8244 26.279 20487 2
67.5934 59.8489 28.2126 20483 1
69.1903 61.8561 28.9239 20492 2
74.1853 61.1565 27.8009 20497 2
72.3347 59.3917 25.8552 20485 2
73.6914 58.2014 28.071 20489 2
71.4164 61.5711 27.291 21396 1
71.0868 59.1909 28.8204 20537 2
71.0808 61.5168 24.991 19632 1
17.6708 62.0609 27.3054 55544 2
21.0373 62.1701 26.5841 63425 2
20.5545 65.527 26.1213 54635 2
17.8946 65.3787 26.5277 55588 1
19.0895 63.3007 25.4586 53783 1
19.7216 63.999 28.6424 63146 2
24.2564 62.6091 26.9326 54632 2
25.6639 65.283 26.8489 63028 2
22.4845 64.5977 27.6498 48872 1
22.0738 62.4892 28.9788 63233 1
22.8471 64.3194 24.8794 63600 2
23.0315 74.9902 40.392 5410 1
30.852 65.4844 24.5216 5309 2
28.881 62.3012 28.1034 48774 1
27.4811 62.9212 25.8366 63227 2
27.8631 65.7114 24.8756 5799 2
28.7554 65.1007 27.7772 63176 2
26.6531 63.3482 28.4118 63043 1
30.6805 63.3306 26.3664 24954 2
34.1383 62.6994 28.437 3025 2
33.6596 63.4033 25.808 19499 2
32.6176 64.9533 27.8023 2284 1
36.8725 62.1349 27.8985 20458 1
36.8236 63.1542 25.3047 2288 2
38.8022 65.5129 25.8826 2328 2
36.12 64.7996 27.7177 3184 2
39.1078 63.6019 28.3589 1384 2
42.0545 54.2964 24.6374 431 2
41.6412 63.383 27.4135 1439 2
40.641 65.8955 28.448 2331 1
43.8776 62.5433 26.0902 1391 1
17.8164 60.6342 40.2162 57406 1
44.2808 65.2365 26.403 1442 2
46.9989 64.1954 26.3802 1443 2
44.5629 63.452 28.1695 1438 1
45.4156 65.5808 28.7892 19652 1
17.6139 73.6583 41.6232 62803 1
49.9434 66.2223 25.7486 1446 2
50.1621 63.4269 25.1601 19660 2
49.2566 63.7658 27.7794 25036 1
52.2017 63.083 27.2676 19617 2
51.0664 65.6622 28.662 2388 2
52.6021 66.2781 25.7554 2381 2
54.9773 63.8085 26.9255 19665 1
57.0242 63.235 28.3571 20518 1
53.6181 65.1724 28.3426 1490 1
57.3535 64.2076 25.9091 20521 2
60.2767 65.5706 26.4689 19670 2
58.0642 65.7644 27.8769 20522 1
59.6816 63.0327 28.4007 20525 2
60.4882 62.7773 24.944 18729 2
61.8875 63.3861 27.2582 25860 1
64.9484 63.3651 26.7507 19625 1
62.8395 64.3203 25.2481 1455 1
65.1969 65.6341 25.6958 2354 1
63.0196 65.4517 27.3806 19624 1
66.1058 65.5667 28.295 21433 2
67.1188 63.9074 25.5272 602 1
67.2567 63.0297 27.5379 20533 1
69.6907 63.3731 26.3483 20527 2
68.7274 64.7114 28.9416 25854 1
69.5536 66.1746 29.2537 23502 2
72.9342 63.2974 25.906 19679 2
72.0383 65.9976 27.125 21693 2
74.7339 65.519 26.7017 22590 1
71.1788 63.6712 28.5485 19639 1
73.6821 63.9874 29.0835 22549 2
17.728 39.4586 51.5486 7531 1
19.0604 67.7088 26.2734 54678 1
19.2162 70.096 24.7332 54856 2
21.1838 68.5416 25.6468 63142 1
19.8032 70.6575 27.6312 54810 2
20.722 67.5358 28.3677 63177 2
18.0957 67.1823 28.6368 50692 1
23.0522 66.792 26.3457 63141 1
23.0972 69.0781 27.8361 54677 2
25.1518 67.7627 26.5405 63140 1
23.8713 69.5409 24.9552 48693 2
23.8943 66.4919 28.6702 55685 1
27.837 67.8748 27.0245 63144 2
26.6573 68.8383 24.9629 55682 1
29.617 67.628 25.0915 1383 1
30.9842 66.9796 27.5491 63037 2
33.158 66.1805 25.9305 24853 1
32.1904 68.6453 25.2306 63014 2
34.5642 68.4362 26.141 48819 1
32.8553 69.7255 28.0202 4408 2
34.1142 67.1527 28.3719 5806 2
35.4161 66.112 24.7245 24997 2
38.3678 66.4293 28.3313 2332 1
35.6161 70.136 27.7522 3598 1
36.9767 67.9265 26.5533 2373 2
38.2652 70.1451 24.877 4204 2
38.6154 70.2391 27.533 2419 1
41.7499 65.8208 26.2679 572 1
40.3303 68.1958 26.7688 1482 2
42.806 69.3637 26.4442 579 1
41.7138 69.9756 28.4559 1485 1
43.2226 67.4544 28.5104 2420 2
74.9538 63.681 42.4215 24358 1
17.858 29.8298 28.7459 1936 2
47.3695 66.6598 25.1577 525 1
47.9844 66.471 28.0698 19614 2
45.7858 68.0467 26.8178 578 2
47.8092 69.7673 28.6901 3294 2
44.8401 70.3406 25.5368 530 1
44.5828 70.412 28.3308 1483 2
48.4626 68.7276 26.1058 1528 1
50.1283 68.0694 28.0489 2338 1
51.1716 69.355 25.855 1488 2
52.4432 67.868 27.8491 2427 1
17.561 28.8082 74.6228 62060 1
54.0937 68.8234 24.9179 19710 2
55.3597 66.6862 26.995 2430 2
54.1453 69.8846 27.8349 1533 2
56.3433 69.6314 26.2784 2425 1
56.7401 68.4919 28.9596 2439 2
54.1909 67.4011 29.3088 2384 1
60.8099 69.291 25.9628 19718 2
59.3435 67.5913 28.5625 20569 1
58.5635 69.9903 27.6161 25855 1
58.1181 67.6394 25.8363 25882 2
61.7011 67.66 27.8982 20571 1
62.7419 66.8293 25.223 18779 2
64.4867 67.8787 27.0947 20529 2
62.9354 69.8048 28.214 21735 1
17.8929 22.4529 43.8232 24702 1
65.3158 69.3207 29.6303 19669 1
68.2322 66.2033 26.3618 18736 2
69.8956 67.9629 27.1146 25816 1
69.1905 69.5805 25.6079 18741 1
67.4691 68.7025 27.9247 22589 2
66.3347 68.419 24.9765 21739 2
71.0055 67.9245 25.0113 2396 1
73.3281 68.7515 26.1789 2592 2
71.7841 68.2195 28.425 25853 1
73.8029 69.8449 28.6223 21748 1
74.3274 67.1054 28.7869 22592 2
71.6043 70.6511 25.2524 21785 1
71.6994 71.1421 70.9523 14222 1
19.0621 73.5384 28.2224 54859 2
18.6792 74.3873 25.2525 63363 2
22.0296 71.0735 26.1603 63128 1
21.7673 73.841 26.4687 63116 2
25.7941 70.2017 27.3119 63124 1
24.2654 72.6587 25.1782 63118 2
23.9443 71.5986 27.427 63010 1
25.8463 72.8871 27.4703 48908 1
23.9421 74.3144 28.2412 4505 2
29.768 70.1312 26.7233 63139 2
26.7774 73.8356 25.4211 3538 1
28.2063 73.6488 27.5996 4507 1
27.4205 71.4161 25.8799 63125 2
30.1703 73.2691 25.9132 3587 2
27.7545 71.1007 28.8976 4452 2
30.6104 72.3807 28.7295 3543 2
34.5656 71.9057 26.2826 21775 1
32.1174 71.6408 26.5417 4458 1
33.0617 74.2946 27.8695 3599 2
32.7993 73.6828 25.3754 4512 1
38.7424 73.476 25.044 22511 2
36.9342 71.9626 26.6394 3597 1
39.0798 73.2734 28.0143 4520 2
35.7628 74.5843 25.6759 3602 2
36.1245 73.9395 28.6433 23876 2
65.229 75.1445 52.4977 25668 1
42.837 73.1981 24.5433 577 2
40.8998 71.3879 26.3659 2374 2
42.5493 72.8006 28.2217 1532 2
40.9655 74.1684 26.2323 19699 1
52.4543 26.8352 24.6707 1165 2
47.0927 70.8075 26.3082 3300 1
45.0106 72.8588 26.2568 1487 2
47.0524 72.7144 28.3052 2424 2
48.4369 74.692 26.5106 1531 2
49.4845 71.7794 27.0444 2426 2
51.289 73.8127 27.0593 21736 1
52.1872 72.0053 27.954 22630 1
52.8202 71.6555 25.765 2431 1
55.5736 74.7129 25.2972 12850 1
53.005 74.5926 25.1177 22631 2
54.0706 73.3453 27.1266 21526 1
55.2373 71.8709 25.1814 25821 2
55.6673 74.6418 28.3017 21729 1
56.86 71.9613 27.6979 21476 2
57.528 73.5091 25.0632 2432 1
58.3846 70.9995 25.1145 19667 2
58.4249 74.555 27.5417 20618 2
60.5317 72.1143 26.9959 20619 2
60.391 74.3394 25.0524 21788 2
62.75 71.1776 26.3008 25856 1
65.4429 70.8724 26.7861 20824 2
63.3948 73.7536 26.3121 22588 2
64.4048 72.0569 28.7938 25778 1
63.8567 74.42 28.9492 23542 1
68.2085 71.621 27.4343 21737 2
66.4282 73.7804 25.7956 21781 2
66.5189 73.9092 28.7512 22638 2
69.8447 72.6624 25.178 22688 2
67.38 71.0107 24.9568 21740 1
69.0678 75.0001 27.3823 21787 2
74.9403 72.1454 72.7521 25193 2
71.3163 70.9282 27.7052 22642 2
71.3877 73.8231 27.5145 25817 1
73.2208 72.7349 26.0717 20834 2
73.8874 72.5716 28.5495 21791 2
17.8968 30.0051 50.4281 24623 2
21.2417 19.48 31.3823 2716 2
19.5195 21.8125 31.83 20051 2
18.2399 19.1082 31.2139 59349 2
23.5899 19.133 29.7209 20009 2
22.0768 21.3203 29.3843 25064 1
24.8733 22.0091 29.7076 24990 2
24.3738 20.4588 32.4924 3701 2
26.31 18.4735 30.6105 784 2
26.6821 18.6646 33.8464 3652 2
26.9242 21.0064 31.9363 2772 1
28.0957 21.1452 29.5095 2717 2
28.8012 18.9809 31.5612 1847 2
29.3343 21.7368 31.8701 2776 1
30.8747 19.892 29.6981 1891 2
38.5276 75.2233 29.869 4522 1
30.9613 22.5045 30.446 936 1
33.3918 20.6614 31.024 987 1
31.4885 20.4346 32.7007 3653 2
34.0432 22.3044 33.2553 1948 2
35.0665 19.5967 33.5037 3660 2
38.7476 19.2314 30.0333 21910 2
36.2041 21.1908 31.2473 1900 2
38.3118 19.5812 33.5037 3663 2
39.2106 21.7528 31.8435 3662 2
36.6163 18.4255 31.6208 3659 1
39.8948 21.6835 29.2559 3657 1
41.9787 20.0757 30.2778 22582 2
41.4005 20.7387 32.7265 25771 1
43.7005 19.2628 33.2067 3667 2
43.6287 22.2061 31.3311 2784 2
45.3336 19.9562 31.0471 12875 1
45.9655 21.9728 32.9882 2791 2
46.6784 18.7964 33.4196 21060 2
46.6341 22.3965 30.2087 4627 2
48.2176 19.9448 31.0316 23264 2
48.7784 22.0938 32.9749 2736 2
50.5303 21.4749 30.7233 21895 1
51.3845 18.9098 31.0591 3670 2
49.6481 19.2808 33.1711 22528 1
51.4341 21.4442 33.4666 22570 2
53.1963 21.5265 30.4467 2785 2
53.4414 20.0986 32.8531 21898 1
55.8675 20.7974 29.5923 23127 1
55.8051 20.4724 32.146 22564 2
54.358 18.4568 29.9637 22533 2
54.14 22.4773 33.1528 2851 1
61.5892 18.5652 31.7113 22527 2
58.0249 21.4122 30.3 23632 1
58.6389 19.2696 32.5711 21893 2
59.7323 19.7971 30.2574 20993 1
60.8818 21.543 32.0528 20141 2
58.1722 22.0841 32.5276 12459 1
62.2784 20.3455 29.1729 38322 2
64.8766 20.08 29.4523 12897 1
63.8969 20.4357 31.8757 25850 2
65.5251 18.6125 32.9854 31025 1
36.7546 75.0917 31.6922 4524 2
66.6096 21.0152 31.2767 11550 2
69.0117 19.1776 30.4491 30802 2
68.0461 19.2731 33.42 30814 2
70.3558 20.7053 32.2155 1659 1
67.7963 21.9019 33.7268 12415 1
72.1047 19.7817 29.9635 22613 2
74.5224 21.0573 30.8218 30808 2
72.7192 19.8997 32.5356 12506 1
72.3155 22.514 32.4186 11516 1
20.1609 22.6547 28.7873 1887 1
19.2833 24.2192 30.2302 1930 1
20.9329 25.8423 30.686 2818 1
19.8772 24.9576 32.9637 2809 2
18.5639 26.8962 30.8458 2763 2
22.2674 23.9479 29.6986 1886 2
22.3274 22.3591 32.092 1841 2
25.139 25.2097 30.1379 976 2
25.307 23.5655 32.6615 2770 2
23.1059 25.2609 32.4412 2820 2
28.1419 25.7147 29.2716 1889 2
27.0776 25.5576 31.913 21001 1
29.3942 24.2198 31.0894 2771 1