ITEM: TIMESTEP    
35000     
ITEM: NUMBER OF ATOMS  
77888     
ITEM: BOX BOUNDS pp pp pp
17.607 132.393    
18.0782 131.922    
19.7052 130.295    
ITEM: ATOMS x y z id type
20.5654 18.8574 22.7516 1839 2
19.1674 21.1181 21.395 72779 2
21.9234 21.7551 23.4548 977 2
20.2527 18.8461 19.8744 20011 1
22.0569 20.7513 20.5874 72830 2
23.3433 19.3375 22.9613 23170 1
25.573 19.7593 22.7722 22628 1
24.6448 21.6312 21.271 72824 1
71.064 18.1242 56.6233 5849 1
27.0329 22.1867 22.1361 1846 2
29.8964 20.8623 22.8318 20062 2
29.6758 21.85 20.406 2719 1
27.7101 19.3533 20.8225 22548 2
27.48 18.2155 23.8427 1845 2
32.2169 20.0498 20.9345 24988 2
32.5314 21.7995 23.2599 43709 1
34.7214 20.4332 21.8656 1851 2
37.2535 20.9245 20.1621 22537 2
36.9745 22.0624 23.2047 1899 2
38.9353 18.7979 20.3689 1904 1
37.0215 18.4322 22.3944 22536 2
39.6898 20.6109 22.2706 1854 2
42.0099 22.0934 20.8307 40934 2
42.0511 18.5839 20.0632 23153 2
42.6307 19.7377 23.0472 23128 2
41.2322 22.1794 23.518 3665 1
44.6564 20.2072 20.6074 1099 2
47.587 20.8134 21.0801 40834 2
45.8531 19.9493 23.7342 22576 2
50.0905 21.915 20.0558 40893 1
50.1374 20.1464 22.7275 22529 2
52.4752 21.222 20.6368 38365 2
52.5982 19.0779 22.7132 22574 1
50.0327 19.011 19.8166 38521 2
55.0095 20.8964 22.1904 23176 2
56.9601 18.7681 22.8283 13500 1
55.7213 18.3714 20.3865 21944 1
74.9665 35.8839 20.6924 25919 2
60.9174 20.8778 20.979 31298 2
60.1217 18.386 22.6446 19184 2
58.787 20.913 23.6405 31285 2
58.1633 19.7183 20.5031 38509 2
24.8172 19.423 19.8962 1021 2
64.2303 20.8193 21.4608 21892 2
62.6662 18.7259 21.1911 31021 1
62.7541 19.9501 23.9073 38322 2
66.4828 20.2307 22.8337 20998 1
67.3023 19.5293 20.2808 31023 2
68.9215 20.9393 22.8602 19245 2
66.9853 22.0177 21.1087 31293 1
69.9687 18.3146 22.9816 38366 1
74.1839 20.0485 20.437 31289 2
73.0692 18.7044 22.8141 21403 2
70.966 20.0457 20.9984 30996 2
72.3164 21.9584 22.5496 12413 2
21.1702 24.2602 22.4864 25062 1
19.5437 25.7581 20.9989 970 1
18.1031 23.8349 22.4573 1928 2
21.8313 25.8915 20.6511 52493 1
24.2966 23.9523 22.8071 25024 2
25.4072 23.8384 20.1867 926 1
23.191 23.6278 20.6362 1942 1
22.7203 26.0921 22.7998 1888 1
24.7437 26.4966 20.8011 25061 2
26.9842 25.1441 21.8687 1945 1
29.4675 23.6738 21.9994 1895 1
29.6983 26.0815 20.7681 40920 2
40.7886 59.3581 19.8903 476 2
31.4876 25.5939 22.72 25060 1
31.9957 23.3104 21.0754 989 2
33.5502 26.4135 21.2788 1035 2
33.9428 24.1989 23.4655 25027 2
31.0759 23.6256 23.9958 25026 1
35.2975 23.3397 20.8165 40928 2
39.4196 22.5246 20.1782 2790 1
36.6141 25.8527 22.0919 2729 2
39.1679 26.4319 21.2914 2836 1
39.3041 23.9584 22.4854 3770 2
40.9879 25.0217 20.5237 1956 1
42.3167 24.2919 22.6622 2782 1
43.2002 24.3376 20.2483 41801 1
42.9231 26.7604 19.7565 1897 1
44.8902 22.7034 22.3312 43705 2
48.6316 23.7648 21.5461 40989 2
45.2069 25.9612 21.4771 40939 2
46.5934 24.5536 23.4911 1153 1
51.2877 22.7806 22.694 1110 2
48.8497 26.4549 20.1556 23205 2
50.617 26.0617 22.8827 2020 2
51.579 24.3905 20.1434 19180 2
53.1426 25.0912 22.1374 23642 1
56.3074 25.1742 22.8086 18330 2
54.2606 23.5281 23.3825 40030 1
54.7574 23.8695 20.4158 40025 2
57.1962 24.8095 19.9169 18326 1
56.4817 22.5161 23.9593 23172 1
57.5899 22.5791 21.4552 38629 2
60.0811 23.0019 22.9087 20148 1
59.106 26.4222 20.4338 19227 1
59.1069 25.1011 22.6189 246 1
60.2405 23.6661 20.1078 199 2
61.7131 25.947 21.5241 19229 2
62.5575 22.9681 22.2815 19285 2
64.4446 25.689 22.7208 20106 2
65.0033 23.6021 20.9808 18327 1
65.9293 26.7904 20.6119 18337 1
66.3557 23.0326 23.3536 31002 2
69.2805 23.8839 22.0343 1065 2
67.2094 25.5662 22.5397 19241 1
74.9396 53.4603 20.5762 18596 2
71.3917 23.2884 20.3619 12457 1
71.3555 25.7403 21.0487 30290 1
73.355 24.6377 21.8256 43162 1
71.4956 25.1114 23.4454 19299 1
20.7452 28.1022 21.8221 1933 2
18.0298 29.671 21.8989 63536 2
19.8079 29.8248 19.8556 72807 1
22.0128 30.9714 21.1364 1071 2
23.4394 28.611 22.1948 63545 1
25.2657 29.9814 20.9941 1023 2
25.6105 28.9649 23.2622 40916 1
27.8263 28.0421 22.2736 39954 2
29.8809 29.2637 20.4246 983 1
28.3245 30.9488 21.4548 40965 1
31.2947 28.2411 22.4591 41845 2
33.2208 29.7854 20.274 41885 2
32.9587 30.2334 23.0003 1033 1
35.5938 28.9552 21.8625 40926 2
37.6937 30.1218 20.5044 2000 1
38.145 28.2983 22.5451 1083 1
37.6208 27.7916 19.6846 2779 1
42.1896 27.2439 22.3574 41842 2
40.0986 29.0436 20.8612 1907 2
42.962 29.7378 20.2834 2001 2
43.3956 30.4229 23.6004 43703 2
41.1673 31.2758 21.933 42701 1
47.6651 26.9754 23.1632 40935 2
44.7422 28.4506 21.8946 40985 1
45.7531 31.0642 21.6944 41032 2
46.8568 28.3366 20.8887 41894 1
47.8093 29.5776 22.9498 1954 1
52.1334 27.1932 20.5932 1165 2
48.6686 30.8938 20.347 41898 2
49.821 28.6219 21.5375 42717 1
49.8159 30.812 22.9146 42715 1
51.8536 28.857 23.0674 40996 1
51.7922 30.4993 20.8518 1163 2
55.3197 27.1004 20.2372 19382 2
53.9493 27.1011 23.2975 20144 2
53.9032 29.2147 21.6791 1105 1
55.5964 30.3477 20.2826 248 2
53.3798 31.4051 23.3731 1164 2
57.5943 27.8983 22.1869 19231 2
59.1964 30.2802 23.6448 200 2
60.4312 29.0395 21.0184 2792 2
58.2881 30.4466 20.9987 1109 1
60.2375 27.5637 23.2198 19243 1
63.6508 28.4192 21.1353 19242 2
62.4792 30.2501 23.244 20214 2
63.9623 30.9072 20.2662 18380 1
62.8571 27.6654 24.2981 20151 2
68.8754 27.0043 20.4154 30998 2
69.7964 27.1399 23.1823 19186 2
66.6717 28.2382 22.897 12515 2
68.943 29.5804 21.6727 43818 1
66.4094 29.4908 20.0183 30833 2
68.3223 30.7895 24.0057 20158 2
73.1435 27.2483 22.8958 1076 2
70.9431 29.7551 23.2728 19294 1
73.9208 30.2576 22.9805 19300 2
74.2661 28.8938 20.3493 43804 1
71.6042 28.6037 20.7469 18339 2
73.481 31.201 20.5787 19297 1
18.9271 32.6095 21.6182 1017 2
21.6996 34.4507 20.8506 1060 2
20.0011 35.2832 22.9679 63543 1
18.173 35.4276 21.0322 1121 1
21.6966 33.0007 23.1267 1980 1
17.8275 35.1349 23.7975 2808 1
24.4603 33.0593 21.3258 63681 2
25.4059 35.4326 20.5397 43702 1
26.576 35.3439 23.2295 1075 2
26.6414 31.7598 23.3846 20152 2
27.1864 33.6715 21.0012 1070 1
28.8672 33.2649 22.5797 1989 1
74.7758 71.9915 36.8966 23541 2
31.1101 35.0011 21.6334 1029 2
31.0838 31.8212 21.6568 1940 2
33.4381 33.4339 22.937 24974 2
32.9892 33.3661 20.1857 984 1
35.3962 31.9365 21.0375 41893 2
35.2285 30.8615 23.7021 2010 1
38.2905 31.7677 22.5008 1199 2
35.8507 34.8542 21.4265 41937 2
38.4042 34.1056 20.8622 19202 1
38.7016 34.8729 23.6887 20283 2
40.503 33.5655 22.0489 2002 1
43.4566 32.8261 21.0882 41848 2
42.5189 35.3085 22.5755 2990 2
40.646 35.3905 20.0056 41024 2
43.8925 35.7416 20.2481 1159 1
46.0685 34.852 21.4451 2067 2
48.0148 32.8481 22.6548 237 2
49.0735 34.9673 21.3782 41035 1
51.0409 33.366 22.7265 2022 2
50.6157 32.9723 20.1357 291 1
56.4184 32.0987 22.5273 2077 2
54.8119 34.0043 23.4079 249 1
55.907 34.6717 21.426 19334 1
53.7197 33.0206 20.925 20251 2
53.2281 35.4748 22.4645 1208 1
61.0115 32.0164 21.284 1112 2
58.9232 33.1803 23.0214 19233 1
60.5373 34.7106 22.0849 43165 1
58.0541 33.1848 20.2084 241 2
65.1804 31.2533 22.7049 19289 2
66.1218 32.5786 20.2983 19288 1
63.696 33.6916 20.6937 19232 2
62.4484 35.4362 23.3232 20213 1
63.0379 33.0671 23.163 19341 1
64.7991 34.6629 23.3006 19339 1
65.9073 35.2547 21.2229 20215 1
67.9094 31.6649 21.4209 20162 1
68.2252 34.1793 20.9999 19349 2
69.8519 33.9272 23.5356 19295 2
66.8136 33.24 23.4756 19293 1
70.7369 31.8239 21.4041 19246 2
71.0483 34.6989 21.1675 25899 1
72.987 34.0932 22.5932 19301 2
21.6758 74.8786 66.8258 11706 2
20.1853 36.8477 20.8361 63542 1
18.2752 37.7177 22.952 63539 2
21.8485 37.9434 22.8344 1979 2
18.2412 38.4197 20.2117 63669 1
23.6471 35.818 22.5231 1069 1
23.0806 36.9754 20.0211 1988 2
25.3723 38.0977 21.9174 2036 2
22.9676 39.5559 20.9121 2045 1
23.7488 39.6785 23.6 2039 1
29.4423 35.7126 23.6192 1074 2
28.0965 36.1429 20.6121 41015 2
30.0019 38.3536 21.2483 1028 2
27.9876 38.4456 23.4196 1122 2
33.5111 36.8423 21.934 2829 2
31.6012 37.6648 23.2715 1079 1
32.7504 39.6659 22.0477 41941 1
17.6609 38.9444 26.0776 63314 2
35.4001 38.8741 22.4399 1998 2
37.7411 37.0171 21.2552 41068 2
38.169 38.0997 23.9808 2061 2
40.1657 39.5879 22.5774 41984 2
40.2172 36.7613 22.2075 40988 1
42.6341 38.0796 21.115 1204 2
47.9125 35.8909 23.4873 236 1
45.0291 39.2485 23.4496 41031 1
45.6151 37.8712 20.8883 286 2
47.8896 38.5689 23.0782 330 2
17.6147 54.8708 64.5908 13136 2
51.4425 35.809 20.3824 1155 2
50.5889 36.4831 23.2731 1162 2
49.9554 38.7821 21.481 290 1
52.5696 38.6829 21.8014 18473 2
55.4652 36.3102 23.4743 19276 1
54.7997 36.8743 20.753 20297 2
54.9607 38.7139 22.9209 388 1
59.762 36.3059 20.3279 1119 1
57.3293 39.0385 21.7517 18430 2
58.0475 36.0113 22.2913 2121 2
60.9631 37.7058 22.5384 19286 2
62.3675 36.0458 20.6868 19236 1
64.3272 37.4434 22.628 19281 2
64.8842 39.7366 20.3756 18433 2
62.5956 38.4998 20.7643 44031 1
67.3341 36.1189 23.5151 19291 2
66.6845 37.9595 21.5197 163 1
69.5672 36.9485 21.4319 18437 2
68.6043 39.5277 20.4167 18439 2
68.687 38.6798 23.1179 19340 1
67.2414 74.8749 33.0761 23587 1
72.4759 37.3665 22.3382 19352 2
70.7991 39.698 22.1596 20353 1
71.3628 39.0237 19.7523 18443 1
73.6119 38.2293 19.7745 18489 1
48.3081 37.0698 19.8479 40108 2
72.851 71.7319 73.2507 15179 2
20.2244 40.2372 21.8538 63537 2
21.0152 44.5166 20.1618 48570 2
18.5867 42.6118 22.1988 63648 1
21.0401 43.437 22.9622 63528 2
18.4038 43.799 19.9634 63651 1
22.9263 41.499 22.3185 21093 1
25.2668 41.1916 20.642 41066 2
23.9008 44.0748 21.4974 63650 2
26.343 43.1137 22.2804 2969 1
26.0094 40.8455 23.8056 2037 2
30.559 40.3924 23.6628 25055 2
28.3327 41.4171 21.5786 43701 2
28.7676 44.142 22.5048 2049 1
31.3532 43.1563 22.6962 2090 2
31.0512 41.1121 20.33 41883 2
32.3564 43.9089 20.3358 24950 1
34.1868 42.1536 21.7449 2051 2
33.0166 41.554 24.246 1994 1
37.6165 40.3233 21.1687 41072 2
38.5823 42.1356 22.7796 1202 1
37.7928 43.3736 20.7453 42033 1
36.3445 44.1451 22.9087 41939 2
35.9472 41.4347 24.0469 2053 2
42.7616 40.3766 23.5225 25047 1
40.089 40.7029 19.9001 42706 1
40.7509 43.199 21.078 3133 2
42.2264 40.6805 21.1415 1200 1
43.6452 43.1019 22.5429 1251 2
74.7145 39.9278 28.2271 20270 2
43.2046 44.4598 19.978 1249 1
47.5539 40.3563 20.3603 41038 2
44.6826 40.4698 21.0222 25049 1
46.3881 41.4165 22.9055 2119 2
45.673 42.9807 20.3519 1254 2
48.842 43.9445 21.2185 340 2
49.079 41.2997 22.5202 2113 1
51.2376 41.3982 20.8553 289 2
52.0755 44.0137 22.3217 25040 2
29.7573 43.5335 20.0263 42710 1
52.6198 41.2405 23.3294 20299 1
54.5212 40.7586 21.0282 18427 2
54.4629 43.023 22.5639 39218 1
55.8775 44.0193 20.1447 1350 2
53.4557 43.2024 19.9095 1307 1
57.0539 42.2132 22.428 19337 2
59.9488 40.6774 22.1894 20206 2
60.644 42.816 20.3292 18479 1
60.5034 43.3999 22.9498 20298 2
58.6559 43.8378 20.7805 1255 1
18.2843 46.4802 33.8999 3925 1
61.8675 40.8151 20.3943 18379 1
63.125 40.3232 23.0207 19338 2
62.977 42.7795 21.5665 18435 1
65.2529 42.3669 20.9587 19384 1
65.7419 43.7679 23.0829 21284 2
66.44 40.3847 22.7772 20305 2
69.1302 41.3084 22.8113 19389 1
67.6298 42.5798 21.2691 19396 1
68.4525 43.6287 23.9741 20308 2
74.5836 63.6037 48.173 25257 2
73.3616 40.3647 21.3652 20361 2
71.4207 42.12 22.5315 2141 1
72.9468 43.6262 20.4649 18488 2
73.9556 42.983 23.6641 19447 2
18.656 45.4641 22.1842 63282 2
21.6362 46.5463 22.3689 53468 2
19.5109 48.5414 21.4716 63274 2
26.4136 45.9731 21.8411 41064 2
24.0773 45.8698 23.777 2088 1
23.9338 47.9043 22.4035 63527 1
23.7939 46.3251 19.9743 2079 2
28.779 48.5145 22.6288 24951 2
29.9517 46.0542 21.0606 41946 2
28.3801 45.9361 24.0073 1131 1
30.6644 45.4545 23.9407 2046 1
32.9463 45.7456 22.3316 2157 2
31.9655 47.8797 21.0028 41115 1
34.2271 47.2824 20.2476 2092 1
31.4583 47.7232 23.3364 2922 1
35.0349 46.478 24.2185 3952 1
35.0232 44.5981 20.1233 41070 2
38.6731 46.0247 21.2578 41124 2
37.5073 48.6206 22.3408 2155 1
35.9591 46.6427 21.9829 41990 1
39.5664 44.7313 23.2046 2156 1
41.9216 45.8491 22.2225 1293 2
40.4448 48.7068 22.589 1294 2
44.28 48.0174 22.0748 2169 2
46.4719 44.4324 23.2648 1253 2
44.2356 45.7067 23.4273 2162 1
44.987 45.4566 21.041 1257 1
47.3697 46.2973 20.4939 381 1
47.4962 48.5612 22.0463 41079 2
48.3782 46.3142 23.0866 385 1
50.0605 48.6794 23.6046 394 1
50.305 46.6958 21.196 1305 2
52.8919 48.5971 22.2794 19428 2
52.9317 46.3502 20.9205 1345 1
54.5996 45.893 22.9644 1306 2
55.4238 47.594 20.4409 19426 2
56.6686 48.1594 23.7569 21280 2
57.5521 45.2831 22.9545 1303 2
61.0603 45.6337 21.0786 20338 2
59.7684 47.2144 22.9853 2172 2
58.0719 46.7228 20.2245 20346 2
63.0879 44.9317 22.73 20304 1
64.096 45.1712 20.3541 19386 2
65.4116 46.3778 22.5309 25875 1
62.9346 47.8983 22.2206 18534 2
65.6132 48.07 20.3972 20344 2
69.8391 44.2548 21.39 19436 2
67.171 45.4051 20.4689 21192 2
68.1257 46.3767 23.0031 19439 2
69.3491 47.5741 20.169 18476 2
70.545 48.7008 22.8604 2268 2
72.0853 45.7092 22.5308 20313 2
72.2013 48.3909 19.9195 19445 2
74.6043 46.532 21.1752 20354 2
73.1072 48.272 22.5885 25871 1
21.955 50.2532 23.1655 63632 2
20.9591 51.5674 20.6421 53552 2
18.3364 51.3011 21.5571 54461 1
25.9573 49.0406 21.1239 2085 2
23.625 51.934 21.5131 63235 1
22.8662 49.2317 20.189 48669 2
26.1966 51.9905 20.3353 2084 2
24.8043 50.5667 23.7494 63483 2
30.138 49.1049 20.047 2040 1
27.7458 51.2958 22.8651 2089 2
30.1745 51.9117 20.9734 40239 2
31.234 49.7224 22.1059 40237 1
34.3409 48.8726 22.5118 2095 2
34.6312 51.7595 20.901 41120 1
32.7688 51.6853 23.0123 41114 2
32.8539 50.0673 19.7653 2048 2
36.1831 49.3697 20.2027 41077 2
35.9962 51.4523 23.266 378 2
38.6138 51.0114 21.7547 18505 2
41.6011 51.5899 21.2761 431 2
44.0215 52.473 23.451 1386 1
42.211 49.0503 20.1773 2207 2
44.7086 50.807 20.8015 383 2
46.1688 53.0034 22.2776 438 1
48.6351 51.7008 21.3809 3092 2
45.8262 50.3819 23.8864 1295 2
50.459 49.3418 21.1864 1351 1
52.7757 50.637 20.3954 436 1
51.5404 51.3289 22.8983 25001 2
48.5228 50.5031 23.8433 2240 1
55.4536 50.439 21.5113 1268 2
53.7393 52.6101 22.0018 1352 1
42.1181 74.6829 31.6123 5424 2
56.4078 52.708 22.5547 1267 1
57.9465 49.0906 21.6674 19470 1
60.4986 49.1145 20.2461 19481 2
57.8124 50.8519 23.4573 1310 1
58.0898 51.4925 21.2794 3150 1
60.4558 50.2015 22.7319 20342 2
60.8458 52.6483 20.9759 20390 2
59.1298 52.9896 23.4259 19379 1
66.0895 50.8141 21.8097 20397 1
63.371 50.5552 20.8932 19483 2
63.1065 50.7452 23.8874 20392 2
67.6423 48.9303 21.8218 25042 1
69.8709 74.9116 58.444 27999 2
66.8791 52.9384 20.0249 19482 2
70.1134 50.269 20.4714 20352 1
68.7578 51.4687 22.4862 19488 2
74.5707 49.3387 20.8726 19492 1
72.5367 50.9407 22.0702 19532 2
70.8641 52.8551 23.6039 20402 1
19.345 53.883 22.4306 63500 2
21.2316 56.2205 22.782 48680 2
18.474 57.5725 22.4493 63187 2
33.2246 18.1701 36.1219 3661 2
22.3159 53.2714 23.2078 63481 2
23.2267 54.6613 20.7653 63634 2
25.4594 53.5944 23.0845 63188 2
26.4976 55.8224 21.0123 63479 2
28.0255 53.8361 21.7408 3022 1
29.7969 57.0608 23.2421 24954 2
29.8328 53.4107 24.0724 2195 2
26.7039 57.5532 22.8728 53557 1
31.8868 54.2481 22.4533 41977 1
33.1694 55.8055 21.0173 41981 1
34.2461 53.8624 24.2806 41170 2
33.5724 57.0487 23.5978 1382 2
35.1556 57.4708 20.2042 63057 2
35.2182 54.3838 21.7127 428 2
38.081 53.8781 22.6348 477 1
36.7052 56.4381 23.3574 376 2
37.7518 55.846 20.4319 1338 2
39.5836 53.6863 20.724 25067 1
43.6014 54.0595 21.3061 435 2
41.0593 53.9884 22.504 19545 1
42.7998 56.2448 22.7187 481 1
40.7817 56.1907 20.9767 429 2
39.9588 56.2837 23.9567 3191 2
45.2318 56.1991 20.4735 479 2
46.7404 57.6213 22.4516 1393 1
47.877 54.9629 21.5074 1348 2
45.3493 55.2469 23.5797 1390 2
50.9517 53.4078 20.8104 1392 2
50.5161 54.1913 23.3464 19565 1
50.7229 56.1334 21.7462 491 1
52.6188 54.9011 22.4032 1399 1
64.439 74.9518 29.6991 21783 1
55.144 54.7065 20.8447 20435 2
56.9644 55.5559 23.4258 25887 2
54.7014 53.8847 23.6954 19469 1
54.433 56.4277 23.24 19657 1
58.093 53.9277 20.8793 19517 1
60.4746 56.2523 20.2677 18630 1
59.7801 55.1103 22.2794 25865 1
57.8797 56.8984 20.6892 1401 2
61.5005 56.6846 22.691 19572 1
64.8191 53.3425 22.0538 19486 2
62.8139 55.151 20.7512 19570 2
63.8868 55.6389 23.2719 19520 1
66.1479 56.7526 22.149 19585 1
67.5681 36.523 19.7956 19290 1
68.043 54.5459 21.8993 19524 2
68.4993 57.3518 20.5514 19586 2
68.298 57.311 23.7991 19626 2
70.8583 53.4563 20.8141 19489 2
73.715 74.4417 71.9357 28319 2
70.8389 56.1184 20.0145 19584 1
72.8303 55.6779 21.1976 19533 1
70.6624 55.4274 22.9387 20444 2
73.597 53.7439 23.2805 19530 2
73.0194 56.465 23.6375 19534 1
21.3516 57.1645 19.9204 63468 2
19.2129 60.8954 21.3319 53700 2
21.1393 58.9497 22.4881 63438 1
19.3627 59.9499 23.8658 63040 1
21.3519 61.7964 23.6692 63425 2
24.0087 58.0077 21.6628 63433 2
22.1205 60.5431 20.2836 63600 2
23.3933 60.4317 22.6594 63410 1
74.8494 50.6274 34.6497 23149 2
25.8383 59.7798 22.2831 63474 1
28.2717 59.0486 21.1456 5799 2
31.9218 58.1305 21.1899 43152 2
38.7109 58.3473 21.9117 1385 2
35.6071 59.3522 22.6092 19499 2
38.2734 61.2962 21.1497 2288 2
39.3652 60.7055 23.9019 2286 1
43.2335 58.133 20.8692 19607 1
41.3059 58.8026 22.8305 24937 2
40.9182 61.5553 22.1536 526 1
43.6446 60.7376 21.627 1440 2
44.4311 57.9824 23.1609 1387 1
45.7948 59.1824 20.6761 1391 1
46.3649 60.2274 23.2051 1445 2
46.2875 61.665 21.0342 525 1
52.7068 58.1612 22.1613 1398 2
48.1966 60.4066 20.4651 1395 1
49.3683 58.4874 22.5285 1447 2
50.2659 60.8998 21.9109 19616 1
51.2931 59.5117 19.9882 534 2
55.0357 57.7704 20.3886 20473 2
53.8404 60.4959 22.8941 2342 1
56.1346 61.3463 22.4716 25862 1
56.1198 58.5153 23.0101 448 2
54.2968 61.1404 20.1844 533 2
59.1634 57.9709 23.3441 444 2
60.6357 58.9419 20.5444 19575 2
57.7596 60.0912 20.7389 19618 2
59.8749 61.9273 19.9941 19621 1
59.6843 60.521 22.6355 20476 1
62.1887 61.2932 21.7551 18729 2
63.6379 58.0056 21.6508 19574 2
64.6229 61.968 21.0757 1455 1
51.6318 74.7392 48.5479 26256 1
61.6989 59.1046 23.7551 20480 1
64.0743 60.221 23.8701 19580 2
66.3678 59.4713 21.5453 1420 2
69.2415 60.1889 22.1687 20487 2
71.3811 58.1304 21.4669 20485 2
74.1312 58.8677 22.4849 19593 2
74.032 60.5342 20.2288 18692 1
72.0081 60.9338 21.4769 19632 1
21.6056 63.4787 20.6478 54635 2
19.0497 65.6568 20.3993 50596 1
18.2014 63.3071 20.2306 53783 1
21.7259 65.1199 23.5662 63177 2
19.4079 63.5963 22.5292 55588 1
24.8661 61.4969 20.3863 63588 2
23.659 62.8538 22.5762 63141 1
24.2452 64.6751 20.542 63411 2
26.5626 62.3289 22.643 63144 2
38.9586 63.4096 23.459 2328 2
42.6453 63.4421 21.9902 572 1
41.6379 65.8004 23.6752 1482 2
40.4765 63.8108 20.6523 19546 2
41.8926 62.7116 24.4395 1439 2
45.055 63.1169 23.3111 1442 2
44.3013 65.9153 21.5843 18753 2
46.3469 64.0867 21.1771 579 1
47.1447 65.8692 23.0228 578 2
48.6482 62.8988 21.961 1446 2
52.3535 62.8378 21.4914 19660 2
50.5727 62.8293 24.0009 25036 1
50.047 64.9672 20.104 1487 2
49.6929 65.14 23.0303 2338 1
52.4482 65.2246 23.0233 2381 2
54.7278 63.2957 22.6134 19665 1
54.2651 65.2845 20.6689 583 2
56.7401 65.4052 22.8102 2430 2
56.0945 63.1618 20.6523 18770 1
58.445 62.7924 22.4124 20521 2
61.3695 63.8382 19.8731 19622 1
61.2849 64.0543 22.8236 19670 2
65.3889 64.74 21.7725 18779 2
63.3039 65.8555 23.4216 19624 1
63.8313 63.0523 23.4016 25860 1
62.5922 65.626 20.8121 25901 1
65.9484 61.7416 23.054 19625 1
67.5274 62.545 20.8203 546 2
68.6117 64.9916 22.7455 18736 2
70.4069 62.2365 20.3152 18742 1
68.015 62.2548 23.6956 20533 1
66.3082 63.9614 24.2407 2354 1
71.084 64.6231 21.1121 1461 1
74.3956 62.4853 22.3016 19679 2
72.7954 65.6048 22.9794 21693 2
70.9945 62.7463 23.3136 20527 2
73.9571 64.522 20.5129 21801 1
67.3547 65.1752 20.0749 19629 1
19.3037 66.0058 22.7278 54678 1
21.579 66.8549 20.4686 48693 2
19.2892 68.1321 21.383 63142 1
21.35 69.7458 20.8227 63128 1
21.2521 68.1909 23.4312 54677 2
18.3802 68.3274 23.6009 63016 1
23.6493 66.6731 22.1866 63140 1
23.5182 69.0037 21.7594 55682 1
25.4336 67.5321 20.0802 54813 2
25.7774 67.8586 23.6332 63139 2
25.6222 70.5627 20.5812 63014 2
25.0334 70.6046 23.0816 50703 1
27.4793 69.9261 22.829 1383 1
43.4957 68.2023 23.6512 2420 2
46.3903 68.7935 21.8476 1483 2
47.8767 70.9459 23.4479 3300 1
48.5294 68.3994 23.6151 1528 1
48.7596 67.2418 21.3924 19699 1
51.742 67.2413 20.5737 632 2
49.7637 69.7285 21.4313 1531 2
51.0047 67.667 23.6567 1488 2
52.8399 70.0531 21.7741 19711 2
55.9646 70.3241 20.8701 25821 2
54.4269 67.6368 22.6842 1533 2
55.2885 70.3635 23.3801 2431 1
37.8152 74.2205 73.9782 15167 1
59.4131 66.0212 21.3164 25882 2
60.6851 70.5029 21.1467 19667 2
58.6434 68.9176 21.1379 2425 1
57.3865 68.3132 23.512 2439 2
59.9582 69.3378 23.6348 25855 1
61.9084 67.927 22.2659 19718 2
63.4161 69.6877 20.2094 19672 2
64.4735 67.6932 21.8347 25856 1
65.323 70.1093 22.5408 20824 2
62.5239 70.4337 23.8484 20619 2
68.5615 67.7024 22.6094 25881 1
69.3139 66.4818 20.4602 21691 1
68.043 69.9633 22.2647 21740 1
66.8159 67.9712 20.486 21739 2
66.276 66.7961 23.8706 20529 2
70.2039 69.2061 23.5319 25816 1
74.9826 43.8121 64.4477 29283 2
70.9665 67.2608 22.1532 2396 1
72.7816 69.2548 21.4325 2592 2
74.0503 69.4854 23.8268 21748 1
74.9231 52.841 56.6612 28906 1
19.3795 70.7342 22.9471 54810 2
20.3744 72.843 20.6716 63116 2
21.4985 73.0392 23.1355 63010 1
18.4578 73.8248 23.7305 54859 2
22.1866 70.9619 22.7866 63124 1
23.9091 72.7151 22.1764 3538 1
22.9937 71.3849 20.1776 54814 1
25.1184 73.4785 19.8243 3585 2
25.2342 74.6538 22.477 4502 1
33.0427 75.0163 67.4831 13391 1
27.015 72.4341 22.895 3587 2
29.2019 74.1619 22.9209 63178 1
29.66 72.0034 23.9652 4458 1
56.0531 72.9525 22.6614 22631 2
58.0468 70.9603 22.5241 2432 1
58.4983 73.8311 22.1671 12850 1
60.6272 73.2966 20.4323 25814 1
60.2357 72.7579 23.4387 20618 2
19.768 18.2893 49.659 7336 1
63.2023 72.5879 21.5059 21788 2
66.2702 73.1819 21.9779 21781 2
63.0016 74.6349 23.6602 21776 2
17.6766 23.2767 70.1041 64139 2
68.7757 71.819 24.2693 21737 2
68.6705 72.1317 20.6761 21745 2
74.9067 19.8449 32.582 11589 2
73.151 74.6919 20.9773 20880 2
70.5727 70.9459 22.1274 18741 1
72.2675 71.9947 20.5382 21785 1
73.8689 72.314 22.6166 20834 2
70.9061 73.527 22.8487 22688 2
17.8194 19.7627 27.9433 59349 2
19.0839 21.2751 24.1275 20053 1
21.6416 22.0956 26.1615 25064 1
20.4823 19.4337 25.804 1881 2
19.2849 22.4014 27.1265 20051 2
24.5303 21.4497 23.8178 1848 1
23.3947 19.906 25.9849 20009 2
26.1346 18.6806 26.9124 784 2
26.7407 21.4127 27.9368 2772 1
27.2095 20.7819 25.1186 2717 2
28.8458 19.4065 27.6975 1847 2
28.9573 22.1879 27.1753 2776 1
30.82 20.8906 25.7193 1891 2
32.9078 19.1721 24.4102 23637 2
33.8789 20.5685 26.5077 987 1
34.5788 21.9153 24.5039 2726 1
36.2439 19.1201 26.8177 3659 1
35.6487 19.7748 24.4745 20120 1
38.3159 19.8124 24.9445 21910 2
39.1228 22.3334 24.9141 3657 1
36.5493 21.8602 26.4373 1900 2
41.1735 20.8637 25.8983 22582 2
41.5378 18.4521 27.7178 22535 2
43.9103 20.6794 25.6581 21871 1
47.8164 22.0825 23.5099 1908 1
46.3007 20.8044 26.6364 12875 1
48.6074 19.9464 25.2108 23264 2
48.6744 22.4094 27.2517 2736 2
46.5593 18.424 26.3853 22534 1
50.6528 22.228 25.1853 21895 1
51.5443 18.7662 25.2551 3670 2
51.9059 22.248 27.5047 22570 2
50.1029 19.9119 27.703 22528 1
52.4242 19.5903 27.8437 21898 1
55.889 20.2897 24.584 23127 1
54.8366 20.5065 27.5754 22564 2
53.2026 21.2276 24.6 2785 2
57.1652 21.2516 26.1924 23632 1
58.0579 18.5807 25.6341 11602 2
60.6984 19.573 25.2507 20993 1
59.6214 21.257 27.4546 20141 2
61.0602 22.3429 24.9792 20104 1
74.9312 66.7954 62.068 27961 2
62.6631 20.8552 26.9364 25850 2
65.3956 20.7782 25.3413 11550 2
64.5271 19.036 27.5987 31025 1
67.7762 18.6576 24.8805 30802 2
69.5144 19.6297 27.2596 1659 1
68.2357 21.878 25.8681 12867 2
67.0373 19.8275 27.8529 30814 2
66.595 22.2347 28.0299 12415 1
71.039 21.6867 27.2068 11516 1
71.0918 19.7207 24.8462 22613 2
73.784 21.2911 25.0226 30808 2
71.9145 19.2816 27.6469 12506 1
73.1739 21.3875 27.8588 12890 1
29.0722 18.1781 64.7422 10018 2
71.033 74.0329 73.8752 25981 2
19.4842 26.3338 23.7829 1883 2
19.8103 23.5687 24.6407 1887 1
19.7319 25.4415 26.376 1930 1
22.2295 23.6797 28.2366 1841 2
25.6601 26.3268 24.0349 1025 2
21.8576 26.3082 27.371 2818 1
24.7329 22.7516 26.0551 24990 2
22.3775 24.5847 25.1756 1886 2
24.6467 26.2017 26.8146 976 2
28.6989 25.6225 24.0566 1944 2
26.5272 23.6474 24.2171 1884 1
27.4264 24.4622 26.7206 1889 2
28.8926 22.6797 24.5511 936 1
30.1435 23.9404 26.1369 2771 1
32.7567 23.038 26.2067 2775 2
31.8004 26.2188 25.2731 1946 2
34.5834 25.1056 26.1219 2778 1
37.1254 24.4592 24.8951 25025 2
38.7804 26.2522 27.1073 4664 2
36.6695 24.4695 27.6998 5526 1
39.3837 22.9891 27.4298 3662 2
39.7564 26.7412 24.1266 1958 2
37.0073 27.0036 24.4639 1951 1
43.3085 22.6036 24.4464 22532 1
43.2398 22.8781 27.1154 2784 2
41.0703 24.3407 25.3075 23152 2
42.0628 25.9625 27.4798 3759 2
44.0796 25.3946 24.6152 2837 2
46.0745 23.0202 25.5347 4627 2
45.0337 24.8453 27.5081 21900 1
46.9802 26.065 26.0082 2786 2
47.7292 24.6331 28.4527 4629 1
48.9455 24.2166 24.6713 750 2
52.3414 24.6611 24.8134 2024 2
50.3663 25.1285 27.3734 1107 2
53.0883 24.7256 27.489 21056 1
55.1001 26.3099 25.9022 40027 2
54.9597 23.3578 26.0899 30857 2
57.0503 24.7612 27.2823 2028 1
57.0228 22.6147 28.2172 12459 1
61.2232 25.0947 24.5392 713 2
58.5334 23.6031 25.3515 20098 2
60.1327 25.6684 27.0218 20201 1
61.4377 23.4366 27.1281 20096 1
63.6616 23.2997 24.915 20100 2
63.1711 25.9801 26.8512 19684 2
65.6574 26.1513 25.2444 25879 2
64.1163 23.1207 27.8907 25880 2
65.9521 23.4542 26.2199 12414 1
69.8643 24.2287 27.2574 20160 1
68.5533 25.0576 25.0696 19196 2
67.3189 24.9684 28.0059 12419 2
70.7639 22.8838 24.7511 22672 2
73.5119 23.9347 24.2666 20157 1
74.4383 26.4538 26.0185 20163 2
72.6286 23.9374 26.878 1651 2
71.3025 26.6656 25.8716 20113 2
20.4566 30.6252 23.8816 63546 2
18.5304 28.8967 24.4095 63548 1
19.9787 28.0818 26.818 2763 2
18.9214 30.85 26.5956 1936 2
23.5288 31.0709 23.6873 1018 2
22.2186 30.2814 25.9324 1929 1
22.4812 27.6896 24.7528 1885 2
25.0091 29.3164 25.8624 1941 2
29.8853 31.0385 24.3172 1947 2
27.4611 27.4915 26.3003 2769 2
27.8117 29.3742 24.5442 25059 1
27.5367 30.9518 26.86 2817 2
29.6975 27.9848 24.5977 1949 1
30.2866 29.1569 26.8671 2864 2
34.3104 27.4347 24.2856 25028 2
32.1584 28.969 24.953 2872 1
34.4308 29.6404 25.9085 24982 1
32.9942 28.3237 27.1308 24984 1
32.4423 30.8881 28.1943 1993 2
35.8191 27.3573 27.1125 2828 2
37.1253 29.5019 25.1384 2831 2
39.6119 28.6717 26.1946 2873 1
38.5946 30.3262 27.7262 2862 1
35.6935 30.4268 28.214 3752 2
40.1605 29.7621 23.736 40975 2
43.0949 28.8425 27.752 2789 1
42.1898 28.0923 25.2574 2069 2
41.2616 30.8833 26.8363 2054 2
44.0933 30.648 26.3357 3713 1
44.4148 26.9982 26.9697 2006 1
46.1595 30.9951 24.5717 2942 1
45.3978 28.3415 24.5889 41849 2
48.102 29.354 25.9511 2072 2
45.8236 29.0258 27.9847 2984 2
49.8489 28.4966 23.9973 2026 1
49.5839 26.8412 25.4553 2027 1
48.4888 27.4581 27.9349 2893 1
52.6487 27.313 27.9797 2898 2
51.9619 27.6264 25.0163 42770 1
50.6226 28.7597 26.8098 3666 1
55.9046 29.1915 23.8666 1973 2
53.8823 29.3714 25.84 23129 2
55.5673 28.2977 27.7858 2071 1
54.6615 30.8679 28.0595 2029 1
58.1336 26.6193 25.1303 19234 2
57.4404 29.5427 26.4049 20145 2
60.5976 28.5272 25.7826 25878 2
63.2328 28.5461 27.2155 20209 1
66.031 27.7356 27.843 20207 2
65.1092 29.4108 25.2225 21002 2
62.4233 30.5564 26.1633 20257 1
64.9323 30.768 28.0261 20150 2
69.1339 27.4033 27.777 21054 2
67.8456 28.0634 25.4043 20216 1
68.0133 30.1804 27.0659 21044 2
70.1024 29.0266 25.4552 20159 1
71.2958 29.4715 27.5196 20149 1
72.8828 28.8619 25.2398 18336 1
72.9781 30.98 26.459 19249 1
19.574 33.3756 24.9407 1934 2
20.8691 34.9914 28.0378 1977 2
18.7473 33.4979 27.6261 2811 1
17.5519 31.6351 24.1035 53355 1
24.1871 33.6775 23.8956 1983 1
22.2086 35.3535 24.6039 1981 2
22.4743 32.9955 26.3668 2863 2
25.918 34.5874 25.9853 2042 2
24.9955 32.1085 25.7762 1986 1
26.4887 33.0496 28.0502 63326 1
30.8547 33.6392 24.5668 2916 1
28.2492 33.2333 25.1694 1938 1
30.126 32.2609 26.8097 3749 1
29.3697 35.0002 26.7133 1990 2
32.9264 31.7824 25.2191 1950 2
32.2414 33.9169 27.2061 2908 2
34.6771 34.2337 25.6297 3754 1
34.495 32.9561 27.6982 21059 1
36.2518 33.3029 23.8925 1080 1
35.6766 31.9623 25.7814 4713 1
38.4582 32.3068 25.6201 41895 2
37.3766 34.9633 26.395 2931 2
40.3535 34.7589 26.6814 284 2
41.4696 32.7988 24.3087 2004 2
42.8396 34.9925 25.1135 2944 1
43.2027 33.2555 26.9139 1149 2
44.7476 33.2915 24.0919 43700 2
46.4413 32.2329 26.8881 24957 2
47.1823 34.1867 24.8315 1209 1
45.3419 34.8838 26.3625 21169 1
47.8195 35.1616 27.7282 2953 2
51.2522 31.078 25.2845 25056 2
48.5429 31.7634 25.0133 2023 1
49.7117 34.2781 25.4592 2117 2
49.5142 32.1122 27.6124 1160 2
52.67 34.4416 25.1519 20248 2
51.6999 34.9189 28.0585 21177 2
52.6715 32.4144 27.0378 2902 1
55.2883 32.1 25.6233 19326 2
55.4429 35.1151 25.6336 2123 1
54.7968 33.9381 28.1699 21045 2
57.2506 34.2487 24.3216 19235 1
59.5877 31.6498 27.3036 19238 2
60.9881 32.5076 24.8774 20212 2
57.9367 34.1903 27.108 20255 2
58.005 32.0533 25.1459 18373 1
60.6165 34.4372 27.0787 25877 1
63.9965 32.3065 25.2671 20210 1
63.1397 35.0168 25.8271 20256 2
64.7255 33.3744 27.5171 19344 1
65.8616 34.2613 25.4945 18372 1
62.2268 32.6279 27.4768 25846 1
65.3999 35.6244 27.3615 20302 1
66.2896 31.8558 25.48 20153 1
69.8712 34.812 26.6198 20211 1
68.1062 33.4945 25.4591 19347 1
70.3626 32.009 26.2764 1129 2
67.6589 33.0925 28.0437 2915 2
71.738 31.9406 24.0457 19296 1
74.6374 32.5145 25.0137 19346 2
72.3794 34.4982 25.4591 19350 2
73.2914 33.0687 27.5601 21104 1
19.6219 36.4812 25.6085 63540 2
19.8278 39.2848 24.4648 63318 1
74.8282 51.2347 50.4004 24070 2
71.8607 36.5219 19.7782 18386 1
21.9296 38.2776 25.8769 2911 2
23.6085 35.9602 26.7834 1072 1
24.9243 37.4895 24.9956 1985 2
25.7217 37.6011 27.9967 2047 2
22.1202 39.8492 28.2931 21100 1
28.6164 37.6489 27.7822 2914 1
27.4866 36.8004 25.6278 2041 1
27.7156 39.6656 26.2228 2918 2
30.2998 37.9391 25.7184 2870 2
32.5389 35.8488 24.9252 1997 2
34.9033 36.9695 27.1728 1996 2
32.9401 39.1027 27.5286 3847 1
33.4559 39.0721 24.8645 20156 2
32.138 37.0568 27.4916 3807 1
35.2466 39.8365 27.932 3840 1
35.7224 36.3641 24.2107 1995 2
36.1225 39.1095 25.327 2052 1
38.0281 38.0634 27.0007 20236 2
43.085 37.988 23.8878 2066 1
40.6083 36.8641 24.7268 41994 2
43.3628 36.7012 26.9307 4669 2
41.5788 39.4244 25.7016 3037 2
40.7384 37.8179 28.0124 3811 2