ITEM: TIMESTEP    
140000     
ITEM: NUMBER OF ATOMS  
77888     
ITEM: BOX BOUNDS pp pp pp
17.607 132.393    
18.0782 131.922    
25.7217 124.278    
ITEM: ATOMS x y z id type
19.5276 20.4119 26.3731 72779 2
19.4538 19.6397 29.332 1881 2
20.2594 22.4093 30.1693 1887 1
21.5442 22.3353 27.8824 977 2
73.2934 18.2215 29.7937 21403 2
22.2931 19.4485 28.5934 1839 2
25.3169 19.2542 27.4161 23170 1
24.9614 20.3596 29.4095 22628 1
24.2852 21.2623 26.9652 926 1
22.5631 21.6774 30.2359 1848 1
27.5409 19.035 26.4589 72824 1
30.0683 20.2332 28.0199 20062 2
26.9466 21.679 27.8295 1846 2
27.5463 18.7897 29.0119 1845 2
32.8885 20.6785 27.7397 43709 1
32.086 21.6907 29.5626 25026 1
32.0575 18.1279 27.5598 2719 1
33.0398 18.9119 29.8847 23637 2
34.3593 21.0856 29.8561 2726 1
33.8652 21.9211 25.7499 19151 1
35.5095 20.2245 27.4679 1851 2
38.3853 21.3229 27.0448 22537 2
37.2812 21.8582 29.5186 1899 2
37.9433 18.5771 28.2666 22536 2
35.8074 19.2316 30.211 20120 1
40.0886 18.8556 26.4498 1904 1
40.9653 20.0879 28.5095 1854 2
43.613 18.7671 29.4298 23128 2
42.0612 20.3472 25.9031 43666 1
43.9011 21.2896 29.5049 21871 1
42.6627 22.3702 27.2039 40934 2
41.9596 22.3328 29.8242 3665 1
39.6103 21.5869 30.3441 3657 1
44.687 20.1857 26.8187 1099 2
48.056 20.9049 26.8559 40834 2
46.2646 19.4772 29.3727 22576 2
47.7609 21.8876 29.3684 1908 1
50.6942 19.0331 26.6065 38521 2
50.3858 21.7844 26.6418 40893 1
52.5045 19.7709 28.9094 22574 1
51.1502 22.2243 29.1752 1110 2
49.817 20.1829 29.3421 22529 2
53.0595 21.1445 26.665 38365 2
55.4561 19.3228 26.2174 21944 1
54.8744 20.0986 28.5219 12513 1
55.7816 22.148 26.1819 39988 2
56.8091 21.8989 28.7312 13500 1
60.3385 21.685 26.7098 31298 2
60.4384 19.1452 28.9131 19184 2
59.52 21.994 29.4524 31285 2
60.4638 19.195 26.2783 31004 1
57.8184 20.0357 27.301 38509 2
64.8497 21.7884 28.5059 21892 2
62.7529 20.5396 27.7308 31021 1
64.7066 18.9952 26.4291 30371 1
64.317 18.5939 29.1664 30999 2
66.9318 19.4735 27.4678 31023 2
69.1055 21.1609 29.5713 19245 2
67.4561 21.8527 27.9222 31293 1
69.3058 19.3933 25.9365 30997 1
69.8607 21.9946 26.4583 31019 2
66.7732 20.3332 30.0763 20998 1
56.6254 43.2388 25.6628 1350 2
70.2994 18.4236 29.6024 38366 1
74.4964 19.6872 27.4862 31289 2
71.5896 20.2548 28.193 30996 2
73.5947 21.6675 29.4898 12413 2
42.4609 36.08 25.8226 41024 2
18.5157 22.7489 28.1823 1928 2
18.9405 25.5509 27.3678 970 1
20.4645 25.0374 29.2388 1885 2
22.4838 24.8148 27.589 25062 1
24.2452 23.118 28.8183 25024 2
23.63 25.7832 29.4186 1888 1
26.1027 25.5519 29.1712 1945 1
24.7772 26.777 26.9349 25061 2
29.2901 22.8428 26.7163 1895 1
26.8296 23.4096 29.8838 1884 1
27.6163 24.7585 27.4148 1943 2
30.2726 25.6988 28.4646 40920 2
29.4306 23.0209 29.4045 1944 2
31.8963 23.2758 27.2576 989 2
33.2627 26.4411 28.0401 1035 2
32.2966 24.1761 29.5491 25060 1
34.6338 23.2535 28.4012 25027 2
35.6327 25.8019 27.06 40922 1
34.3683 25.931 30.1794 25028 2
37.5637 24.5519 28.2609 2729 2
37.6648 26.7586 26.3956 2779 1
36.3379 23.0289 26.1932 40928 2
39.7843 26.2113 27.3447 2836 1
39.8193 23.5325 28.4144 3770 2
36.9694 26.3517 29.8371 1951 1
41.4001 24.7513 26.6784 1956 1
42.0481 24.806 29.0853 2782 1
43.9339 24.9756 27.4053 41801 1
40.1418 26.6471 29.9838 1958 2
43.9826 23.7795 29.6887 22532 1
45.7602 22.8061 27.7712 43705 2
46.3798 25.5537 27.0808 40939 2
46.6842 24.1015 29.8766 1153 1
44.8934 26.4448 29.4686 2837 2
48.627 23.9257 27.8723 40989 2
51.8919 23.9972 26.727 19180 2
50.5237 26.088 28.5399 2020 2
54.0975 22.8547 28.9013 23176 2
53.0958 25.5707 28.9291 23642 1
54.7391 24.8628 27.1241 40025 2
55.1175 25.1402 29.8303 40030 1
57.0567 23.6822 29.9437 23172 1
57.47 26.0083 28.7011 18330 2
73.2181 74.567 71.374 3564 1
58.0721 23.5926 27.1498 38629 2
59.7092 24.649 29.3404 20148 1
61.0264 24.8251 27.0093 199 2
58.5062 26.3863 26.3166 19227 1
62.1961 23.0506 28.7303 19285 2
64.8335 24.9751 29.3869 20106 2
64.1702 24.1486 27.1419 18327 1
62.7237 26.8877 27.2137 19229 2
62.8795 22.8896 25.8495 30803 1
65.609 26.5511 27.2677 18337 1
69.2315 24.0622 28.7884 1065 2
67.3771 25.8589 28.6582 19241 1
66.9708 24.0947 26.5619 31294 2
70.3031 24.909 26.0886 44061 2
66.9317 23.274 30.221 31002 2
73.1144 25.2599 26.6235 44079 1
72.0583 23.1398 27.7912 12457 1
71.4636 25.3275 28.7132 30290 1
73.6319 24.8022 28.9284 43162 1
74.9622 22.5332 26.7188 39972 2
21.0037 26.9116 27.481 52493 1
18.517 27.3336 28.8035 63548 1
19.6333 29.494 27.492 1933 2
17.8219 29.8015 29.7637 1936 2
20.6912 28.2984 30.14 63546 2
22.0067 30.7726 28.8323 1071 2
22.8269 27.8173 28.8835 63545 1
24.6405 29.3504 27.7193 1023 2
22.3183 28.9 26.4962 975 2
25.4997 27.8698 30.3578 1025 2
26.6333 30.056 29.2885 40916 1
27.7279 27.7278 28.6823 39954 2
28.4379 30.0019 27.3454 19240 1
28.9428 27.4804 26.2706 41796 1
30.3036 28.6206 28.0419 983 1
29.8023 27.5114 30.4344 1949 1
26.7815 28.5895 26.2776 986 1
31.0283 71.4586 25.7884 50703 1
32.3406 28.3653 29.8592 41845 2
33.0368 29.4674 27.0908 41885 2
33.6365 30.7372 29.4597 1033 1
35.7368 28.3421 28.1659 40926 2
37.7106 30.1915 28.236 2010 1
38.4715 27.9274 28.2431 1083 1
39.2559 29.2758 25.9571 1907 2
36.4267 29.7559 25.9739 2000 1
22.1405 74.9748 46.3433 19682 2
42.3257 27.2285 27.8027 41842 2
43.3719 30.2261 28.2224 43703 2
40.3818 29.4363 28.8841 40975 2
44.9904 27.9346 27.4377 40985 1
46.6218 30.087 27.2031 41032 2
48.013 27.6502 28.3786 40935 2
45.6649 29.1215 29.9653 41849 2
49.369 30.194 28.0666 1954 1
50.3393 28.2087 26.972 42717 1
50.5785 28.9457 29.6088 2027 1
51.9828 30.7368 27.5749 1163 2
52.3357 28.0852 28.2682 40996 1
52.339 26.7226 25.9224 1165 2
54.8068 27.6337 29.0437 20144 2
54.961 30.3847 27.7071 248 2
56.0751 27.5182 26.1332 19382 2
53.6374 28.8554 26.1194 1105 1
59.9199 27.4362 27.7406 246 1
57.7087 28.9844 28.043 19231 2
61.6372 29.6849 26.5895 2792 2
60.426 30.553 29.3632 200 2
59.2553 30.8178 26.9959 1109 1
61.8822 28.4514 28.9337 19243 1
64.5687 29.2058 26.9761 19242 2
63.8086 30.5298 29.1742 20214 2
64.3877 27.671 29.924 20151 2
74.9097 18.7049 66.4366 29537 2
68.3731 27.0724 26.5298 30998 2
69.6009 27.1913 29.2309 19186 2
67.0808 28.6812 28.7728 12515 2
69.4598 29.3014 27.4712 43818 1
67.2708 30.2786 26.1769 30833 2
69.36 30.7919 29.8876 20158 2
74.196 27.5326 28.1175 30993 2
71.4615 29.1709 29.1184 19294 1
73.2593 30.2979 28.2773 43804 1
71.5683 27.4297 26.9553 18339 2
71.4983 30.6901 26.321 43793 2
72.3673 27.4045 30.0301 18336 1
74.3939 29.7074 26.0366 39105 2
20.3646 31.4975 26.1161 72807 1
54.3185 74.7914 71.399 24124 1
18.3284 34.7203 28.209 1017 2
21.1429 33.5692 27.3159 1060 2
19.8356 32.1675 29.5681 1934 2
20.5406 34.7673 29.6058 63543 1
18.6774 33.5554 25.7717 74584 1
24.5588 31.7336 29.4083 63681 2
23.9898 34.1341 28.1256 43702 1
22.3589 33.5388 29.7835 1069 1
23.3704 32.0257 26.3966 72814 2
26.2104 33.6651 28.7755 1070 1
72.1985 75.2061 61.064 28048 2
30.8753 31.3192 28.3946 1940 2
26.4802 31.6205 26.7475 40917 2
28.2266 32.0587 28.7309 40965 1
28.3671 34.2562 27.2145 1031 2
30.1251 33.91 29.4023 2916 1
29.4486 32.021 26.1595 979 1
28.071 34.4871 30.0664 1989 1
34.493 34.7039 28.1072 24974 2
33.1183 32.2445 27.5638 984 1
31.4934 34.3462 27.1919 1029 2
32.5587 33.3717 30.1345 1950 2
35.6203 31.8377 27.6361 41893 2
38.7406 32.3578 27.1993 1199 2
36.6476 34.8121 26.6053 41937 2
36.8851 33.3616 29.0875 1080 1
39.1755 34.8916 28.9529 20283 2
39.4869 35.4178 26.4266 19202 1
38.7938 31.7833 30.5529 41895 2
41.1828 31.4047 26.6401 42701 1
41.2942 34.156 27.3071 2002 1
41.4442 32.3393 29.1841 2004 2
41.8149 35.4987 29.409 2944 1
43.939 34.6461 27.9372 2990 2
47.5779 31.4439 29.1429 2942 1
47.0269 34.1074 28.4214 2067 2
44.9556 32.3122 28.8829 43700 2
46.5897 32.6583 25.9068 197 2
46.1067 35.3446 26.0936 1197 1
49.8072 33.0175 28.5366 237 2
51.8522 35.1448 29.1575 2022 2
51.6694 33.24 26.6391 291 1
52.5961 32.7202 29.5129 2902 1
56.6883 34.6794 27.4715 19334 1
54.3735 33.3046 27.5952 20251 2
56.0424 34.3114 29.6729 1208 1
54.8093 32.3086 29.996 249 1
23.0163 75.1222 41.0531 5410 1
57.3116 32.0694 28.6072 2077 2
59.2139 33.4048 26.9371 241 2
60.4596 33.5296 29.1923 19233 1
74.9401 26.7653 66.6294 29446 2
62.0923 32.3592 27.2211 1112 2
62.6697 34.8003 28.3347 43165 1
64.9568 31.8358 26.3927 18380 1
64.4121 33.164 28.4949 19341 1
64.7395 34.8702 26.4902 19232 2
66.7222 34.8883 28.7537 19339 1
66.7634 31.8236 28.5929 19289 2
67.002 33.4173 26.7551 19288 1
69.2884 31.7023 27.4002 20162 1
68.9619 33.9633 27.9157 19293 1
73.6399 32.1665 27.0192 19297 1
71.4258 32.5293 28.5921 19246 2
73.5985 34.873 27.4467 43988 2
71.2117 33.8845 26.3255 18438 1
71.5252 34.6533 30.2947 19295 2
74.4223 32.8714 29.5994 19301 2
18.4767 36.1156 25.842 74330 1
19.7514 37.0415 27.5486 63542 1
21.9194 38.7213 29.5059 1979 2
19.5358 39.9105 28.0463 63537 2
20.7317 35.7918 25.7263 63683 1
22.3034 36.3735 27.9086 1988 2
24.448 38.9916 28.0188 2036 2
25.444 36.2059 29.2821 1075 2
24.3175 36.7247 26.3297 2034 1
29.4075 36.5735 28.8592 1074 2
27.001 36.9701 27.0611 41015 2
29.6184 39.5118 27.5208 1028 2
27.3205 38.9992 29.0952 1122 2
30.0475 36.755 26.1325 1027 2
34.824 37.8836 28.4556 2829 2
31.887 38.3201 28.2025 1079 1
32.823 36.6056 26.9725 41936 1
32.606 36.3702 29.9015 1997 2
31.9972 39.0011 25.7273 1135 2
33.0314 39.5202 30.3872 20156 2
37.8298 37.4855 27.1272 41068 2
37.0916 39.0043 29.7485 2061 2
36.7231 36.1438 29.5874 1995 2
40.6438 37.2547 27.7201 40988 1
42.4234 38.9263 26.5236 1204 2
42.726 37.5687 28.8695 2066 1
39.7399 39.8318 28.304 41984 2
39.8575 37.2564 30.2161 41994 2
44.5675 36.9507 26.9367 1159 1
44.753 38.8971 28.2045 41031 1
47.1888 37.1763 27.7896 330 2
46.2598 39.3564 26.0638 286 2
45.2081 36.4615 29.8121 2995 2
46.3512 38.8682 30.06 25017 1
48.2881 39.8324 28.3588 2119 2
49.4763 35.9246 28.2644 41035 1
51.8757 36.066 26.8361 1155 2
51.1625 38.0715 29.16 1162 2
49.6458 37.9538 26.1274 40108 2
48.6302 37.6297 29.928 1213 1
52.9063 38.7416 26.7737 18473 2
54.2884 36.2255 28.7343 20297 2
54.0577 38.7313 29.1638 388 1
56.4523 39.1087 28.8054 18430 2
67.7008 18.0948 29.449 30809 1
55.7145 38.9838 26.0147 41085 1
57.2784 36.6046 29.1108 19276 1
57.8011 36.9082 26.4454 288 2
60.7182 38.5828 26.2408 18381 2
60.1922 36.2062 28.1417 2121 2
58.9562 38.6735 28.2704 18376 1
61.8574 38.5518 28.9587 19286 2
63.0279 36.9513 26.9143 1119 1
63.9978 36.9127 29.0628 20213 1
65.1612 39.2477 29.4785 20260 1
64.0607 39.4135 27.1741 44031 1
66.0976 37.4914 27.3855 19281 2
66.1433 37.0417 30.0485 20208 1
67.8826 35.6209 26.654 20215 1
68.6123 37.9715 27.4342 19290 1
67.6665 38.9426 29.2392 163 1
68.966 36.5018 29.6149 19291 2
70.6306 38.6519 26.2907 18383 1
70.6964 35.9885 27.3763 19349 2
70.8334 38.959 29.0888 18437 2
72.1874 36.8089 29.2612 25899 1
73.9535 38.8218 29.4547 19352 2
72.9293 37.602 27.1829 18386 1
74.7592 39.565 26.9072 18489 1
19.2555 42.5004 29.1047 63648 1
20.3695 42.3447 27.0806 63678 1
21.3537 41.7862 29.3903 63529 1
22.2431 40.6139 27.2934 2045 1
22.727 42.9313 27.2256 21093 1
23.6227 41.1128 29.3497 2039 1
24.8572 41.7042 26.6996 41066 2
23.9576 43.7543 29.2994 63091 2
26.0865 43.8995 28.0494 2969 1
26.3082 41.5354 29.1454 2037 2
26.9389 39.7734 26.2931 41016 2
28.1964 42.649 27.1039 43701 2
29.3364 41.4787 29.7512 25055 2
30.7681 43.7054 28.0467 2090 2
30.7116 41.8193 25.8315 41883 2
34.3126 40.2054 27.2778 1998 2
31.7211 40.8992 28.2143 41941 1
33.5957 42.997 27.5276 2051 2
34.2735 43.315 30.0065 41940 1
37.224 40.489 26.8563 41072 2
38.0347 41.9048 29.2395 1202 1
36.4927 43.7093 27.9818 41939 2
39.1747 43.0386 27.0725 3133 2
35.601 41.0233 29.6393 2053 2
35.7945 42.341 25.8675 2056 1
41.2918 41.501 26.6457 1200 1
40.8218 42.4459 29.2907 1198 2
42.9663 40.6565 28.6948 25047 1
43.5156 43.2602 27.8938 1251 2
42.6317 75.0298 55.2791 24576 2
44.3751 41.0607 26.717 25049 1
46.7028 42.6781 26.7816 1254 2
45.7952 41.3494 28.9572 25018 2
50.8301 39.9645 27.3548 290 1
48.7211 42.4881 28.5281 2113 1
51.4513 42.4664 27.127 289 2
50.5166 40.9653 29.8579 2074 2
48.7586 41.5702 25.8313 41038 2
52.8381 40.7896 28.727 20299 1
53.7451 43.9217 26.5961 1307 1
54.7677 41.4008 27.0816 18427 2
53.9042 43.2521 28.8582 39218 1
56.5094 43.8833 28.7225 19337 2
57.9091 40.4695 26.3564 19282 2
60.1813 41.0905 28.391 20206 2
58.9743 43.3364 27.6915 1255 1
57.46 41.3952 28.6658 18378 1
61.3735 43.187 26.7097 18479 1
61.3657 43.3368 29.8732 20298 2
62.2822 40.9296 26.8378 18379 1
63.9495 41.5367 28.8008 19338 2
63.2737 43.9124 27.907 18435 1
65.6598 43.186 27.3643 19384 1
21.254 75.0775 29.6351 50713 1
66.5875 40.6791 27.2012 18433 2
69.4369 40.9273 27.3073 18439 2
67.9788 43.1939 28.2385 19396 1
69.6531 42.2082 29.6703 19340 1
70.3342 43.7621 27.8942 19389 1
66.9036 41.4446 29.9651 20305 2
72.4694 39.9837 27.1161 18443 1
71.8937 41.6053 28.6159 20353 1
74.4594 41.7945 28.8442 20361 2
71.9339 42.6357 26.0698 19401 2
72.7875 43.9936 28.1121 2141 1
21.2975 44.5314 28.6599 63528 2
18.7975 44.8125 27.2936 63282 2
18.7259 47.1101 28.3142 63280 1
21.1985 47.1496 27.002 53468 2
20.6388 46.9933 29.6316 48662 1
24.0103 45.3739 26.7584 63650 2
23.705 47.6248 27.9107 2088 1
25.7374 46.1326 29.7055 2044 2
26.3341 48.839 28.0296 63281 2
28.2915 44.4243 29.8344 2971 2
27.0219 46.0256 26.8951 41064 2
29.5821 45.8566 27.5877 2049 1
28.4202 47.2416 29.1083 1131 1
28.5921 48.3957 27.0499 41062 1
30.7073 46.3328 29.7634 2046 1
32.7272 45.9672 26.9877 2157 2
32.9023 47.0316 29.8558 2922 1
34.6725 48.1787 27.9617 2095 2
34.7744 45.5734 28.9782 3952 1
32.5515 44.7479 29.5486 2979 1
31.1875 48.1347 27.8647 41946 2
32.7376 48.4168 25.5688 2092 1
39.0687 44.6109 29.3662 2156 1
39.0059 46.0177 26.8329 41124 2
36.3311 46.1566 26.7739 41990 1
37.4056 46.6809 29.2917 2159 2
37.0389 48.5389 26.8456 2155 1
72.7043 23.2744 25.5938 18389 1
41.1536 44.8284 28.0279 1249 1
40.3492 46.6576 29.3416 1292 1
43.5438 45.8697 27.7266 2162 1
41.5785 47.4673 26.7067 1293 2
42.9061 47.5035 29.8253 25009 2
47.2251 44.4139 29.4416 1253 2
44.5835 47.8024 26.2516 2169 2
45.8039 45.187 27.1843 381 1
45.4521 46.9668 28.7945 21219 1
47.5039 46.7075 27.5904 385 1
50.1558 47.2128 26.4635 1305 2
49.2074 44.593 27.001 340 2
51.9457 47.9508 28.7706 1345 1
49.4771 46.7641 29.369 2208 2
51.9312 45.081 28.5153 25040 2
54.5923 46.0729 28.6598 1306 2
56.2855 48.0981 26.5356 19426 2
56.4522 48.1007 29.7833 21280 2
53.9123 47.9813 30.4587 3089 1
53.191 46.9612 26.1713 1298 2
55.4139 45.4216 26.2533 1264 1
58.1371 46.1898 27.6649 1303 2
61.2575 45.8045 27.6715 20338 2
59.3248 44.9428 29.3962 25046 1
60.6664 48.7295 27.4927 2172 2
59.5164 47.5684 30.4017 19429 2
65.8718 44.5085 29.4627 21284 2
62.1126 47.6885 29.4676 259 1
63.3356 45.5024 29.4677 20304 1
64.8031 46.2993 27.2851 19386 2
62.8277 47.8179 26.4359 1274 1
65.6387 47.5882 29.4703 25875 1
42.0814 18.0487 61.7165 17600 2
67.9927 45.7101 27.2745 21192 2
68.53 47.8106 29.2371 19439 2
69.0484 48.7759 26.2337 18476 2
66.7108 48.4372 27.4717 25042 1
24.9807 23.8996 25.9415 39997 2
70.9222 46.465 28.0503 19436 2
72.8284 45.4262 26.2698 18542 1
74.2555 46.3685 28.2211 20313 2
73.0942 48.1917 26.5022 19445 2
74.1401 48.9177 29.25 25005 2
19.2946 49.5125 27.559 63274 2
18.0203 52.0768 27.6692 54461 1
21.3396 49.7206 29.1876 48858 2
20.1158 52.6443 29.1754 63060 2
17.9166 50.7146 30.084 63275 2
20.3215 52.1266 26.2188 63632 2
23.9985 50.093 28.4332 63527 1
25.3676 51.5213 26.5021 2085 2
22.6825 52.0852 27.7953 63486 1
25.612 52.3022 29.2917 63483 2
22.568 49.9246 26.3256 48669 2
28.0701 51.046 27.8636 24951 2
29.9578 53.0612 27.3472 2040 1
27.0098 50.2732 30.3674 2091 1
72.4631 18.2894 44.2479 10538 2
32.8936 50.2072 27.2048 41115 1
30.5512 50.7783 28.518 40237 1
34.923 50.9538 28.2284 41120 1
32.818 52.8143 27.5859 2048 2
37.5862 51.3937 27.5091 378 2
36.5717 49.3911 29.0645 63642 1
38.7278 50.7958 29.8609 1336 1
39.4344 48.9293 28.3715 1294 2
75.0472 67.7015 48.0064 25357 1
40.5045 52.1036 27.8275 1339 2
42.0584 49.8953 27.0533 2200 2
43.6238 52.3706 26.9503 383 2
41.8304 50.4127 29.6792 2242 2
47.0917 48.57 29.2569 2214 1
47.642 48.9698 26.3828 41079 2
44.7365 49.854 28.4288 1295 2
46.4383 51.4498 26.9431 394 1
47.7297 51.2533 29.4363 25836 2
45.4817 52.9385 29.0789 1389 2
49.9137 49.6291 28.0855 2213 2
48.8305 52.3086 26.4611 3092 2
52.1524 49.822 26.4915 25001 2
50.6838 52.505 28.5556 4065 2
52.385 50.1127 29.4482 1301 1
51.5416 52.4369 25.6327 436 1
54.4676 49.2949 28.0893 19428 2
56.3389 51.2849 26.7648 1268 2
53.6773 52.0598 28.1589 25885 2
56.5701 51.1992 29.4335 25890 2
60.1175 18.155 38.434 21888 2
58.1712 49.1131 27.9493 19470 1
59.4033 51.089 28.4074 3150 1
62.0044 51.5302 27.3559 19483 2
57.9408 53.0941 28.1299 1267 1
60.2001 53.0255 29.1423 19379 1
61.3165 50.287 30.221 20342 2
63.952 49.1163 28.3236 18534 2
64.6669 51.6698 27.6026 20397 1
63.8736 51.7645 30.0227 20392 2
67.2295 51.4727 26.8791 19482 2
68.9443 50.6057 28.5149 1224 1
66.5437 50.3977 29.4735 20351 2
68.4229 53.0797 29.3994 20391 2
70.2146 52.2669 26.8979 19488 2
71.1218 49.1943 28.335 2268 2
73.119 51.0933 27.2389 19532 2
71.3607 51.9623 29.7271 20394 2
73.8537 51.5837 29.9831 19485 1
18.9574 54.9097 27.4945 63500 2
21.8377 54.8628 26.7327 63481 2
21.0872 57.0777 28.4908 48680 2
22.3609 54.1068 29.3172 63046 1
24.2876 53.7631 27.5593 63235 1
24.1764 56.6188 26.3599 63634 2
24.9331 55.4413 29.322 63188 2
23.6685 57.5674 28.569 63485 1
26.2084 54.5184 26.2023 2084 2
27.7604 54.3521 28.6075 2089 2
29.3703 56.776 28.4832 3022 1
29.228 55.3424 26.1015 40191 2
26.8229 57.2351 27.4267 63479 2
30.7781 54.647 29.2538 40239 2
31.7554 55.3213 26.3816 42703 2
33.5396 55.2593 28.2298 41977 1
35.7408 53.4137 27.6705 41170 2
37.0319 55.9091 27.3742 477 1
38.5019 56.3643 29.3171 3191 2
35.7383 55.6061 29.8049 376 2
38.6062 53.9652 27.474 19545 1
39.2962 56.1594 26.1721 1343 2
42.2947 57.1925 25.9239 435 2
42.764 53.6139 29.4679 1388 2
41.0253 55.4763 27.9764 481 1
40.2194 54.2709 29.6643 2201 1
42.9581 56.3925 29.2947 2289 2
44.0589 55.134 27.2991 1386 1
17.3505 38.6528 69.7255 64275 2
46.313 53.8268 27.0448 2240 1
47.7271 55.8916 26.4053 1348 2
45.8958 55.601 28.7648 1347 1
48.2983 54.3941 29.126 1297 2
45.1709 57.6065 27.064 1390 2
50.2669 54.6642 27.1971 19565 1
49.7511 57.0385 28.4597 20463 2
51.6158 56.6686 26.7476 1399 1
52.1765 55.4387 29.3696 1397 2
52.4616 54.3255 26.8221 1352 1
54.3061 54.6689 28.2256 19469 1
54.1858 56.2793 26.2002 20435 2
54.8125 56.7376 29.0523 19657 1
55.5132 53.5981 26.3804 19473 1
56.8474 55.408 27.1685 19517 1
56.1751 54.0561 30.1752 25867 2
60.1537 54.3309 26.8511 20390 2
58.3922 55.3696 29.4487 25887 2
59.2999 56.9393 27.1867 18630 1
18.8533 60.8054 25.7662 53700 2
61.4937 56.6138 27.9903 25865 1
62.7088 54.0848 28.555 19476 2
65.8302 54.0787 28.2364 19486 2
64.2424 56.7399 27.6583 19570 2
75.0424 36.6422 43.6433 22966 1
67.7904 56.0173 27.9179 19585 1
69.4158 57.1743 25.9236 19586 2
68.552 54.2359 26.8081 19523 1
70.4913 55.0552 28.1822 19524 2
72.9169 53.8004 29.373 20447 1
72.668 53.5867 27.0782 20402 1
73.5919 56.1932 26.982 20444 2
74.7121 55.7163 29.5113 20446 1
72.1622 56.3606 30.2413 19588 2
18.1016 18.2465 65.8867 62215 1
18.0897 58.0088 27.2215 63187 2
21.283 59.4679 26.805 63438 1
19.2713 60.0502 28.3616 63040 1
18.9965 58.2482 29.9475 63185 1
74.7933 35.6465 62.2061 25463 1
21.7886 59.8717 29.2087 63183 2
24.1245 59.688 27.3001 63433 2
25.8669 58.9195 29.6811 53648 2
26.3663 61.3228 28.6833 63042 1
22.1308 18.3266 41.4422 3644 2
28.7077 59.7663 28.8138 63272 2
26.9829 59.9982 26.8539 63410 1
29.7925 60.9451 26.3533 53557 1
29.7918 58.1978 26.4976 25023 2
50.2365 18.03 52.6601 7697 2
32.0932 57.5592 28.3702 2982 2
31.0571 60.6961 29.4424 3012 1
33.3374 59.76 29.3563 24941 1
32.1929 60.5401 27.015 1382 2
35.1323 57.6468 27.9697 428 2
35.4832 60.5406 27.5613 24999 2
37.531 58.3229 26.2798 1338 2
37.883 59.4084 29.1791 1385 2
39.1801 61.6256 27.2488 24937 2
40.7026 58.2356 28.16 429 2
41.4791 60.4974 27.4984 19607 1
43.3343 58.9756 28.3521 1387 1
43.1218 61.0375 29.7665 1441 2
43.306 60.0072 25.9137 479 2
47.3431 57.3106 28.7439 1393 1
45.685 60.6221 27.835 1445 2
47.3724 59.5505 29.408 2294 1
48.1943 61.5742 27.3931 1444 1
48.0368 58.9532 26.5201 1447 2
52.626 61.3299 26.3135 2342 1
50.4359 60.125 27.3826 19569 2
51.371 60.6823 29.6827 25035 1
52.5276 58.4909 28.5472 1398 2
49.6649 58.7389 30.1903 3201 2
57.1238 57.8101 28.8054 448 2
53.6483 61.2442 28.6439 24996 1
54.8315 59.1648 27.1244 20473 2
54.986 59.2256 30.1119 20470 2
57.5814 60.395 27.3741 19618 2
59.7859 57.9985 29.5749 444 2
59.9608 60.3457 28.4146 20476 1
59.6256 59.2931 25.8718 19575 2
61.9919 59.1017 27.3797 19572 1
64.6274 59.5739 28.1242 19520 1
63.5263 61.7059 26.3739 19580 2
62.6466 61.2171 29.0269 19623 2
62.9775 58.1758 29.9709 20428 2
65.5452 61.4803 29.6248 20528 2
66.3727 58.0657 29.923 19578 2
69.2444 57.7718 29.0977 19626 2
66.5597 61.0518 26.7266 546 2
66.893 58.3327 27.2541 1420 2
69.8236 60.1486 27.4597 20487 2
67.8575 60.1868 29.2828 20483 1
71.5293 57.6492 27.8591 20488 1
74.5429 61.1446 28.9283 20497 2
72.6487 59.796 27.0754 20485 2
74.0186 58.2936 29.1399 20489 2
71.7726 61.9115 25.9639 19632 1
71.5729 59.5745 29.8241 20537 2
30.4109 29.7529 25.8919 1020 1
20.9898 62.4224 27.6157 63425 2
20.3391 65.3559 27.1615 54635 2
18.7966 63.4304 26.2368 53783 1
19.7663 64.24 29.924 63146 2
22.0791 62.4908 30.1197 63233 1
24.0974 62.5371 27.9905 54632 2
25.4748 65.4317 28.2441 63028 2
22.3088 64.6064 28.8431 48872 1
18.2082 44.2339 41.9315 62978 2
25.538 64.1912 26.0032 63474 1
28.88 62.3415 29.5262 48774 1
27.6688 62.8298 27.1249 63227 2
27.7839 65.6614 26.2619 5799 2
29.0007 65.176 28.9711 63176 2
26.9042 63.6727 29.3787 63043 1
30.7209 63.0254 27.6902 24954 2
30.5918 65.6567 26.2638 5309 2
33.5782 62.479 29.1999 3025 2
33.5219 63.7364 26.8598 19499 2
31.982 65.0298 28.7702 2284 1
36.6579 62.0202 29.2935 20458 1
36.7332 63.1341 26.6714 2288 2
38.5013 65.4121 27.3052 2328 2
35.6596 64.6257 29.0647 3184 2
38.8418 63.6471 29.5889 1384 2
35.347 66.0811 26.3379 24997 2
41.5832 63.5841 28.3157 1439 2
40.7365 65.8447 29.5212 2331 1
43.7003 62.46 27.2004 1391 1
44.2251 63.4403 29.3687 1438 1
41.5051 66.3358 27.3332 572 1
75.0948 26.6473 30.8329 1076 2
51.9047 44.9028 25.6373 2120 1
17.786 57.3528 63.3125 12271 1
46.5701 63.5314 28.1894 1443 2
44.0375 65.5099 27.8011 1442 2
75.1389 64.019 37.1231 21495 2
45.123 65.5857 30.0648 19652 1
46.8009 62.3277 25.5481 1395 1
48.8967 61.7825 29.9171 2387 2
49.1278 64.0805 28.143 25036 1
51.6775 63.1858 28.1261 19617 2
50.9595 65.9369 29.7177 2388 2
50.1434 62.8631 25.9557 19660 2
55.892 61.5493 28.886 25862 1
55.7014 65.8138 25.6819 583 2
54.9881 62.0159 26.5106 18770 1
54.5801 63.6446 28.0493 19665 1
53.5517 64.7444 29.8062 1490 1
55.9991 65.7551 28.9921 2430 2
53.2367 65.8822 27.4 2381 2
57.377 63.3405 27.6243 20521 2
60.5419 65.5774 27.2746 19670 2
58.6787 64.9444 29.1598 20522 1
59.8406 62.6378 29.7007 20525 2
60.1092 62.355 26.7006 18729 2
61.2465 65.2147 30.2119 20566 2
62.2684 63.5888 27.7255 25860 1
65.2911 63.5562 27.2451 19625 1
63.8902 65.5381 28.0379 19624 1
64.1016 63.7135 29.7584 20575 2
66.4225 65.7124 28.8149 21433 2
67.6159 64.0197 26.847 602 1
67.7372 62.5474 28.5634 20533 1
70.0982 63.4845 27.311 20527 2
69.8379 66.111 29.837 23502 2
69.6833 62.1641 30.0713 20492 2
31.435 74.912 30.4528 3550 1
71.9041 61.9646 28.4661 21396 1
73.8172 63.3191 27.1331 19679 2
72.4414 66.0485 27.8605 21693 2
71.468 64.0799 29.5836 19639 1
74.1191 64.0535 30.2102 22549 2
17.7341 68.4682 29.8756 55780 1
18.9573 67.8652 27.8134 54678 1
21.0931 68.5313 27.0024 63142 1
21.1069 67.237 29.7737 63177 2
18.479 66.3598 29.298 50692 1
19.8657 70.4731 29.0033 54810 2
19.2679 70.5474 26.1641 54856 2
22.8572 66.8256 27.6338 63141 1
23.0645 69.4314 28.9728 54677 2
25.0886 67.8855 27.9159 63140 1
23.736 69.2724 26.1013 48693 2
23.7028 66.4552 29.7817 55685 1
25.852 69.9498 27.8082 63124 1
27.6718 67.9709 28.5875 63144 2
26.8171 68.5837 26.1127 55682 1
29.3924 67.986 26.6107 1383 1
29.8995 70.3839 27.962 63139 2
27.3019 70.5401 30.0813 4452 2
30.8811 67.4675 28.8104 63037 2
32.9764 66.3616 27.1034 24853 1
32.1118 68.9057 26.4321 63014 2
34.4672 68.2413 27.5761 48819 1
32.8553 69.8676 29.3391 4408 2
33.9256 66.9281 29.6089 5806 2
38.5619 66.4552 29.7701 2332 1
35.7754 70.0367 28.7451 3598 1
36.9386 67.8233 28.2913 2373 2
38.4828 70.2097 28.8113 2419 1
38.0903 70.4205 26.199 4204 2
40.0829 68.3125 27.7161 1482 2
42.5563 69.5149 27.6056 579 1
42.8164 67.4538 29.596 2420 2
41.7022 69.8731 29.7876 1485 1
47.8961 66.2491 29.1914 19614 2
46.163 66.5929 26.7969 525 1
45.2243 68.6031 28.2177 578 2
47.7274 69.7571 29.7344 3294 2
48.184 68.1291 27.1742 1528 1
44.5392 70.5284 26.7913 530 1
50.311 66.1437 26.8926 1446 2
49.7613 68.346 28.8003 2338 1
51.0841 69.2092 26.6376 1488 2
52.2125 68.0762 28.5321 2427 1
53.7661 70.0063 28.919 1533 2
55.1363 67.8431 27.5608 2425 1
56.5001 68.8758 29.4684 2439 2
53.7274 67.2531 29.9264 2384 1
74.9583 67.1995 67.3733 25282 1
60.7369 69.1597 27.1863 19718 2
59.8224 67.5456 29.3307 20569 1
58.8569 70.1085 29.3593 25855 1
57.8543 67.4022 27.2631 25882 2
58.144 70.3488 26.8362 19667 2
61.4461 70.3284 30.0752 20570 2
63.3812 69.5579 25.9916 21779 1
62.0537 67.526 28.8366 20571 1
62.7525 66.9214 26.3242 18779 2
65.6 67.9287 27.2285 20529 2
63.6543 69.248 28.6085 21735 1
65.6729 69.1005 29.7566 19669 1
63.982 66.9358 30.4503 20524 2
68.7748 66.7523 27.0477 18736 2
68.0237 69.1259 28.3349 22589 2
70.4547 70.5435 27.0517 18741 1
70.5726 68.4119 28.0046 25816 1
73.2138 68.9392 27.28 2592 2
72.0357 67.9972 29.696 25853 1
74.2048 69.6636 29.6147 21748 1
74.6745 67.2775 29.7233 22592 2
17.581 70.8726 38.716 56744 1
19.0519 73.2134 28.7644 54859 2
18.605 74.4446 26.1691 63363 2
21.4648 73.7289 27.3602 63116 2
21.8804 70.9573 27.0426 63128 1
74.6392 41.8138 38.6724 22062 2
22.0418 72.283 29.7997 62901 2
24.0784 72.6302 26.4984 63118 2
25.1624 71.9045 29.1093 63010 1
23.8205 74.0518 29.315 4505 2
26.5352 73.8763 28.6897 48908 1
27.7048 74.6998 26.7882 3538 1
28.6973 72.6719 29.4996 4507 1
27.4076 72.0042 27.0843 63125 2
30.3871 73.536 27.4291 3587 2
31.1769 72.1114 30.2197 3543 2
34.4955 71.5208 27.2469 21775 1
32.2951 71.5338 27.8307 4458 1
33.4173 73.7695 28.6774 3599 2
32.8602 73.4052 26.2613 4512 1
34.583 71.6942 29.9117 3544 1
38.6653 73.4542 26.0041 22511 2
36.8756 72.0755 28.1601 3597 1
38.9893 73.2088 29.1371 4520 2
35.7405 74.3697 26.764 3602 2
36.1736 73.9917 29.8358 23876 2
74.6284 36.1263 40.4687 3940 2
43.1015 73.4851 26.715 577 2
40.8289 71.4146 27.5154 2374 2
42.2158 73.5542 29.4579 1532 2
40.6925 74.3799 27.1876 19699 1
44.0708 71.2644 29.1243 1483 2
46.9312 70.654 27.3099 3300 1
45.8723 72.9261 27.0955 1487 2
46.9478 72.77 29.6336 2424 2
44.862 74.5344 28.8648 21842 1
48.6074 74.4461 27.3211 1531 2
49.617 71.3865 27.8093 2426 2
51.2845 73.8884 27.9986 21736 1
51.9961 71.9354 29.2135 22630 1
52.4956 71.5495 27.0467 2431 1
52.4557 73.9623 30.1433 22632 1
53.6911 73.3035 27.8157 21526 1
54.8441 70.786 26.5342 25821 2
55.5265 74.3673 28.8242 21729 1
56.7597 71.9437 28.3765 21476 2
55.6232 73.6597 26.4512 12850 1
70.4203 44.899 25.8411 19395 1
57.8683 72.977 26.0593 2432 1
58.2102 74.614 28.5471 20618 2
60.1216 72.1564 28.0012 20619 2
60.2458 74.3856 26.075 21788 2
61.2264 73.3177 30.1831 21730 2
58.8354 72.3343 30.1723 20616 1
62.6015 71.2551 27.5817 25856 1
65.3291 71.1797 28.4025 20824 2
63.0889 73.8386 27.4503 22588 2
63.3666 71.9987 29.9516 25778 1
69.0773 72.0207 28.9601 21737 2
66.5347 73.5698 26.6791 21781 2
66.6197 73.8103 29.6887 22638 2
70.0939 72.7709 26.2608 22688 2
67.9267 71.25 26.9158 21740 1
71.7284 70.7266 29.4362 22642 2
72.6448 71.7675 27.0714 21785 1
71.9356 73.5743 28.6214 25817 1
74.0608 73.7639 26.5733 20834 2
74.2447 72.4796 29.4441 21791 2
75.0921 63.5758 61.2727 27079 2
21.2573 19.0444 33.5505 2716 2
19.5128 22.2356 32.6984 20051 2
18.4703 19.3981 32.2828 59349 2
21.0053 20.4603 31.2865 25064 1
23.3854 19.2491 31.5178 20009 2
24.9479 21.9527 31.4954 24990 2
24.2296 20.1795 34.2195 3701 2
22.351 22.0787 33.1909 1841 2
26.175 18.5109 31.8055 784 2
26.9633 21.0996 33.4008 2772 1
27.7334 20.8951 30.8717 2717 2
28.6676 18.9978 33.1848 1847 2
29.3237 21.7667 32.9636 2776 1
30.593 19.9347 31.1092 1891 2
31.0845 22.5402 31.4127 936 1
32.8013 18.292 34.7524 21878 1
33.5621 20.3111 32.3143 987 1
31.4398 20.531 33.7918 3653 2
34.3166 22.3242 34.4825 1948 2
38.6598 19.0849 30.8369 21910 2
36.0616 20.9664 32.2055 1900 2
38.5798 19.4773 33.8924 3663 2
39.0841 21.7803 32.9021 3662 2
36.7169 18.2237 32.5107 3659 1
41.9336 20.1309 31.4423 22582 2
41.1607 20.2507 33.8867 25771 1
43.5459 19.0557 34.0805 3667 2
46.2402 18.2531 31.6822 22534 1
44.8058 20.1489 31.9588 12875 1
45.8951 21.69 34.0747 2791 2
46.6351 18.4307 34.3066 21060 2
48.1151 20.3286 31.7698 23264 2
45.8358 22.1529 31.0279 4627 2
48.7062 22.333 34.1473 2736 2
50.5884 21.5652 32.1788 21895 1
51.3765 18.85 31.7148 3670 2
49.9723 19.8311 33.8968 22528 1
51.8004 21.8865 34.504 22570 2
53.103 21.6713 31.5182 2785 2
53.2351 19.8158 33.4786 21898 1
55.4586 21.271 30.5105 23127 1
55.708 20.3002 32.8875 22564 2
54.2257 18.7106 30.6363 22533 2
57.2986 19.5243 30.1905 11602 2
57.8131 21.7946 31.3795 23632 1
58.2265 19.554 33.2722 21893 2
59.7161 20.0086 31.3157 20993 1
60.3722 21.8783 33.0199 20141 2
57.829 22.4382 33.6101 12459 1
61.3248 18.5542 33.135 22527 2
63.578 18.5033 31.6662 12512 1
62.1563 20.5723 30.4537 38322 2
64.7666 20.5678 30.8653 12897 1
63.3952 20.6048 33.2249 25850 2
65.2088 18.8196 34.2259 31025 1
74.2271 55.9514 67.8594 28438 1
66.3905 21.0856 32.7396 11550 2
68.8534 19.3727 31.8481 30802 2
69.8458 20.6579 33.8353 1659 1
17.7311 49.5069 55.4724 10356 2
71.6953 20.1122 31.4104 22613 2
74.0583 21.473 32.8402 30808 2
72.2273 19.6861 34.2323 12506 1
71.4068 22.1096 33.1082 11516 1
18.9673 24.1691 31.0983 1930 1
20.941 26.0807 31.6068 2818 1
19.6615 25.1317 33.6748 2809 2
18.4098 26.698 31.1817 2763 2
22.2352 23.9829 31.0785 1886 2
25.1352 24.8669 31.7715 976 2
25.206 23.1143 34.1595 2770 2
22.8329 25.0776 33.498 2820 2
28.2408 25.6184 30.895 1889 2
27.2137 25.4818 33.3999 21001 1
29.4051 24.0584 32.412 2771 1
27.3744 23.1849 32.3475 24989 1