ITEM: TIMESTEP    
55000     
ITEM: NUMBER OF ATOMS  
77888     
ITEM: BOX BOUNDS pp pp pp
17.607 132.393    
18.0782 131.922    
20.8512 129.149    
ITEM: ATOMS x y z id type
20.4546 19.1151 23.7632 1839 2
18.8234 21.0217 22.4211 72779 2
21.452 22.1621 24.0356 977 2
19.0061 21.1822 25.4728 20053 1
74.8219 26.7099 38.9861 25764 1
22.162 20.8573 21.3548 72830 2
23.1817 19.9171 23.8979 23170 1
25.0248 21.0596 22.7671 72824 1
23.8861 22.0818 24.7578 1848 1
25.5475 18.7214 23.1865 22740 1
25.6869 20.3698 25.1043 22628 1
26.8068 22.8369 24.1268 1846 2
29.3401 21.1718 24.3103 20062 2
30.8198 21.3404 21.8802 2719 1
27.7117 19.9172 22.0612 22548 2
27.8228 18.5251 25.0246 1845 2
30.3137 18.6066 23.0475 23216 2
32.9645 19.363 21.3725 24988 2
32.1577 20.6811 23.7049 43709 1
34.799 20.3937 23.0114 1851 2
32.9783 18.5122 24.7988 23637 2
37.6091 20.8071 21.4288 22537 2
37.156 21.7358 24.6293 1899 2
39.5429 18.8343 21.5247 1904 1
39.6007 22.5161 21.7451 2790 1
37.3419 18.4946 23.2766 22536 2
39.9211 20.5726 23.7769 1854 2
42.5678 19.392 24.1764 23128 2
41.5545 22.3043 25.3185 3665 1
42.2928 18.2228 21.2437 23153 2
44.6466 20.1849 22.3285 1099 2
47.5079 20.8676 22.3295 40834 2
45.8502 19.714 25.0789 22576 2
47.5974 21.8514 24.7509 1908 1
50.5464 18.9458 21.6257 38521 2
50.052 21.8507 21.634 40893 1
49.8249 20.3982 24.3519 22529 2
52.3345 19.456 24.4243 22574 1
51.5071 22.4436 24.008 1110 2
53.0016 20.6431 21.8407 38365 2
54.5081 22.3797 23.8827 23176 2
57.1164 19.9498 23.7753 13500 1
55.5446 19.0658 21.8144 21944 1
54.7114 19.7849 23.9578 12513 1
35.1406 74.882 67.0634 12487 2
60.7156 21.325 21.9888 31298 2
59.7 18.6559 23.5885 19184 2
59.3914 21.6357 24.943 31285 2
57.9648 19.9532 21.0523 38509 2
64.9439 18.5203 24.6426 30999 2
64.5317 21.184 22.671 21892 2
62.3879 19.2489 22.4505 31021 1
62.1697 20.1706 25.0681 38322 2
64.4108 21.596 25.3757 12897 1
66.489 20.5647 24.5181 20998 1
67.4069 19.7723 21.9125 31023 2
69.0169 21.1186 24.4893 19245 2
70.1447 18.3886 24.378 38366 1
20.1647 18.7516 21.0142 20011 1
67.4444 22.2876 22.2959 31293 1
69.6122 22.5464 20.911 31019 2
67.7924 18.0697 23.8389 30809 1
71.1302 20.3611 22.6338 30996 2
73.188 18.3999 23.5598 21403 2
73.8041 21.543 23.5657 12413 2
20.8049 24.7937 23.7305 25062 1
19.7528 26.0383 21.9816 970 1
18.0425 23.8548 23.2801 1928 2
19.0324 26.6626 24.9116 1883 2
22.1 25.6783 21.7419 52493 1
54.9713 65.0012 21.0948 583 2
22.882 26.0807 24.1594 1888 1
24.0562 23.8264 22.6442 25024 2
24.6512 26.6664 22.0261 25061 2
24.5892 24.2827 25.4049 1884 1
25.4953 27.1142 25.5395 1025 2
26.2964 25.2502 23.8803 1945 1
26.9368 22.809 21.5584 978 1
29.672 23.4419 22.6418 1895 1
29.1853 25.1441 24.8899 1944 2
27.887 25.2955 21.5582 1943 2
30.596 26.3151 22.8643 40920 2
31.3139 22.948 24.6141 25026 1
32.219 25.2783 24.6644 25060 1
32.6166 23.3443 22.4941 989 2
33.955 26.2002 22.5409 1035 2
34.8366 23.9534 24.9149 25027 2
35.6318 23.2511 22.1798 40928 2
36.9276 25.6896 23.5007 2729 2
39.4903 23.9742 24.1679 3770 2
74.6053 70.0146 68.4189 27614 2
42.2108 22.3395 22.5989 40934 2
39.493 26.5993 22.7644 2836 1
41.036 24.8926 21.9525 1956 1
41.974 24.7666 24.9187 2782 1
43.3616 24.934 22.5596 41801 1
45.0644 22.894 23.9418 43705 2
46.0124 25.497 21.9666 40939 2
46.9905 24.5463 24.6761 1153 1
44.474 26.036 25.0391 2837 2
17.74 35.0839 24.8258 2808 1
48.8332 23.8421 22.9136 40989 2
50.3757 26.3252 23.7753 2020 2
51.8394 24.0016 21.3901 19180 2
52.6256 27.0704 21.7692 1165 2
52.8792 24.9794 23.7622 23642 1
57.3697 25.6404 23.9371 18330 2
55.0501 24.6366 25.1669 40030 1
54.8248 24.8064 21.9597 40025 2
57.2086 23.3117 25.5543 23172 1
57.4866 22.5383 22.8838 38629 2
59.8259 24.2268 24.5439 20148 1
59.8908 26.5988 23.595 246 1
59.8758 24.2537 21.8227 199 2
58.8462 26.9324 21.5562 19227 1
57.377 24.9604 21.0431 18326 1
62.3569 26.1225 22.5654 19229 2
62.4756 23.2531 23.7253 19285 2
64.9439 25.823 23.7223 20106 2
64.893 23.7942 22.2229 18327 1
62.9154 22.969 21.0073 30803 1
66.6958 23.3482 24.5074 31002 2
69.5762 24.2025 23.4956 1065 2
67.6159 25.9554 23.8575 19241 1
67.1616 24.8249 21.3309 31294 2
72.0605 23.665 22.1662 12457 1
71.3405 26.0168 22.8222 30290 1
73.6664 24.6767 23.4259 43162 1
73.8881 26.1873 21.2998 30993 2
71.6605 22.8244 25.0864 22672 2
70.2202 73.5679 72.5247 26004 1
21.0029 28.1399 23.3481 1933 2
18.183 29.7971 23.3252 63536 2
20.0105 30.4455 21.6505 72807 1
20.5575 30.6415 25.2241 63546 2
22.2162 31.3048 22.9169 1071 2
23.6688 28.6646 23.8996 63545 1
25.4551 29.9986 22.2653 1023 2
25.9078 29.6028 24.6514 40916 1
23.7465 30.7748 25.5522 1018 2
27.8391 27.7877 23.7587 39954 2
30.3183 29.2011 23.1631 983 1
28.9825 31.3951 22.996 40965 1
28.308 29.3897 21.7279 19240 1
30.1921 28.1253 25.404 1949 1
30.1887 30.9193 25.4593 1947 2
32.6188 28.3089 24.5041 41845 2
32.9482 29.3516 21.8512 41885 2
33.668 30.6983 24.3314 1033 1
35.6314 28.5484 23.8886 40926 2
37.4797 30.7766 24.4077 2010 1
37.5983 29.8474 22.1493 2000 1
38.2758 28.3135 23.9027 1083 1
37.8476 27.595 21.2725 2779 1
43.4406 26.9375 21.0849 1897 1
42.1823 27.4228 23.3854 41842 2
40.2673 29.2554 21.5328 1907 2
43.4877 30.3095 24.1516 43703 2
40.3791 29.9813 24.4682 40975 2
43.6114 29.904 21.2837 2001 2
47.4962 26.9929 24.1638 40935 2
44.8077 27.8405 23.1246 40985 1
46.459 30.063 23.0668 41032 2
47.7458 28.2521 21.7085 41894 1
47.5069 30.8272 25.5026 2942 1
23.5565 17.9416 40.9387 5506 1
49.2392 29.569 23.7068 1954 1
50.1555 28.1773 21.6495 42717 1
50.8521 31.1889 23.5062 42715 1
51.7296 28.7219 23.8366 40996 1
52.0109 30.3428 21.3201 1163 2
49.1144 30.7916 21.0498 41898 2
54.4399 27.1687 24.2236 20144 2
55.9788 27.7038 21.4363 19382 2
54.1119 29.4915 22.7176 1105 1
56.0646 30.6883 21.3162 248 2
53.4276 31.1567 24.9245 1164 2
55.724 29.3995 25.3771 1973 2
57.7934 28.6743 23.644 19231 2
59.8505 30.438 25.1098 200 2
60.7033 28.9123 22.3358 2792 2
58.9364 30.9254 22.5446 1109 1
61.7593 28.3513 24.456 19243 1
63.9122 28.927 22.3985 19242 2
63.4242 30.619 24.6915 20214 2
64.375 31.7165 22.1681 18380 1
66.1065 27.391 22.0233 18337 1
68.9324 27.3511 21.9517 30998 2
70.0383 27.6997 24.7494 19186 2
66.9051 28.8883 24.2143 12515 2
69.2926 29.6643 22.8801 43818 1
66.8264 30.0554 21.5671 30833 2
71.9048 29.6675 24.0952 19294 1
74.2717 28.5423 22.5055 43804 1
71.657 28.4998 21.7375 18339 2
72.8795 27.3599 24.2024 18336 1
73.6014 30.8907 22.0373 19297 1
19.0854 32.8506 23.0235 1017 2
18.127 35.4422 22.4149 1121 1
21.9937 33.2017 24.7713 1980 1
20.3224 35.2591 24.1319 63543 1
21.969 34.4416 22.2734 1060 2
71.3868 72.0664 74.2149 26052 1
21.0212 32.483 20.9482 74584 1
24.6888 33.0862 22.9646 63681 2
25.2906 35.7026 22.0718 43702 1
26.7231 35.5042 24.5685 1075 2
26.6751 32.0482 24.8041 20152 2
27.2125 34.0016 22.5809 1070 1
29.1514 33.4854 23.8222 1989 1
17.592 42.3983 46.7169 62683 1
29.3668 34.0881 21.178 1031 2
31.1782 33.8085 25.0895 2916 1
31.6608 35.0618 22.7108 1029 2
31.5845 31.9048 22.8871 1940 2
34.0644 33.8962 24.0918 24974 2
33.5004 33.3152 21.4258 984 1
74.6233 44.3165 41.3764 23007 1
35.4245 31.5313 22.5954 41893 2
38.8937 32.3281 23.0564 1199 2
36.4771 34.7026 22.1985 41937 2
38.9449 34.7061 24.7236 20283 2
36.6291 33.1636 24.8048 1080 1
39.1975 35.1163 21.9315 19202 1
41.4878 31.8512 22.2793 42701 1
41.225 34.2877 23.0675 2002 1
43.8415 33.0726 22.2982 41848 2
41.857 32.6805 25.187 2004 2
43.9032 35.4522 24.2285 2990 2
46.6494 34.8562 22.7587 2067 2
45.6746 32.6605 24.9426 43700 2
46.2171 31.9593 21.1197 197 2
48.4239 32.5665 23.4979 237 2
48.5543 35.1984 24.5631 236 1
49.5716 34.7886 22.6409 41035 1
51.667 33.7525 23.9942 2022 2
50.8889 32.8462 21.4829 291 1
53.5712 35.5647 23.8472 1208 1
56.8851 31.8564 24.0444 2077 2
54.718 33.62 24.8051 249 1
55.965 34.3656 22.9066 19334 1
53.9524 32.7341 22.3374 20251 2
61.4846 32.2635 22.6109 1112 2
59.4213 33.191 24.3788 19233 1
61.2388 34.8888 23.4419 43165 1
58.1759 33.3804 21.5624 241 2
66.2591 31.9127 23.9725 19289 2
64.2186 34.3903 21.8571 19232 2
63.6148 33.4017 24.2354 19341 1
65.7001 34.698 24.5664 19339 1
66.7647 35.6845 22.2198 20215 1
66.8091 33.2194 21.7583 19288 1
68.5947 32.1191 22.9221 20162 1
69.6889 35.0281 22.5599 19349 2
68.2991 33.5407 24.795 19293 1
71.04 31.8333 22.6269 19246 2
71.9872 35.7442 23.6072 25899 1
73.5125 33.9484 21.8562 43988 2
73.9608 35.4368 25.2671 19350 2
74.0701 32.456 24.266 19301 2
28.0061 47.6738 21.0857 41062 1
20.2655 36.8754 22.0477 63542 1
18.3093 37.7278 23.9051 63539 2
22.0074 37.9737 24.0936 1979 2
20.0195 39.3516 25.5285 63318 1
18.3521 38.6868 21.4981 63669 1
23.7493 35.872 24.0105 1069 1
23.1787 37.2237 21.265 1988 2
25.5663 38.3456 22.7501 2036 2
23.0355 39.8042 21.7997 2045 1
29.5984 36.0989 24.4386 1074 2
28.0699 36.7161 21.784 41015 2
30.2498 38.7777 22.178 1028 2
28.1449 38.898 24.1875 1122 2
34.2346 37.1747 23.4712 2829 2
31.7522 37.8688 24.0246 1079 1
35.3572 39.8581 22.6066 1998 2
46.1482 18.0737 34.0987 20384 1
37.989 37.418 23.0525 41068 2
40.3102 39.5737 23.4305 41984 2
40.8286 36.6219 23.1399 40988 1
42.8423 38.4966 21.8886 1204 2
42.4415 37.7713 24.5818 2066 1
45.0617 38.0266 24.1043 41031 1
47.7391 37.6454 23.6363 330 2
45.805 38.7335 21.3391 286 2
44.4432 36.4108 21.5334 1159 1
52.0009 35.7125 21.6627 1155 2
50.7536 37.0796 24.2128 1162 2
49.9509 39.3566 22.7753 290 1
51.3725 39.8662 25.29 2074 2
49.0597 37.0196 21.3059 40108 2
52.9939 38.642 22.699 18473 2
55.8926 36.208 24.6225 19276 1
55.0891 36.7922 21.9172 20297 2
55.6785 38.4785 24.1262 388 1
58.0379 38.8182 22.9692 18430 2
59.913 36.953 21.9159 1119 1
58.4658 35.6148 23.7322 2121 2
61.5628 38.2378 24.0999 19286 2
59.1507 37.7715 25.18 18376 1
63.0822 35.7453 24.534 20213 1
62.5637 36.417 22.179 19236 1
65.0325 37.4823 23.8383 19281 2
63.2714 38.6962 21.9204 44031 1
65.6691 40.0879 21.506 18433 2
68.0693 36.0818 24.7703 19291 2
67.4301 38.6107 24.1177 163 1
69.3664 40.3016 24.7381 19340 1
67.8583 37.7262 21.8866 19290 1
70.3711 37.9561 23.5478 18437 2
73.3401 38.1518 24.081 19352 2
71.8464 39.5004 21.7055 18443 1
72.3295 37.0046 21.7278 18386 1
74.1367 38.7119 21.311 18489 1
20.287 40.1943 22.9097 63537 2
18.7171 43.0057 23.3255 63648 1
21.2518 43.8506 24.2928 63528 2
21.9672 40.9702 25.3789 63529 1
23.9202 39.9038 24.3505 2039 1
22.632 41.8875 23.132 21093 1
25.3117 41.3554 21.9821 41066 2
24.0228 44.1978 22.3609 63650 2
24.1784 43.0189 25.3391 63091 2
26.337 40.9421 24.8041 2037 2
26.4368 43.4697 23.6812 2969 1
30.7443 40.7898 24.4906 25055 2
28.6362 41.716 22.6877 43701 2
63.1683 74.5747 59.141 28927 1
60.3149 75.1029 55.5724 28043 1
32.9257 40.2081 22.9964 41941 1
31.362 41.6217 21.2152 41883 2
30.9052 43.8056 23.4457 2090 2
33.964 42.8033 22.6285 2051 2
32.7136 42.3606 25.2368 1994 1
40.2763 18.0822 36.5425 21260 2
34.1146 44.4828 25.0561 41940 1
37.8409 40.9934 23.7093 1202 1
35.4059 41.8777 24.7767 2053 2
36.7161 44.2939 23.302 41939 2
39.3459 42.7341 22.3532 3133 2
36.4028 42.1142 21.3935 2056 1
38.2124 42.6027 25.1383 41078 1
70.8331 18.2561 51.0664 5899 1
43.1184 40.4649 24.0309 25047 1
41.9646 41.9291 22.2226 1200 1
43.4037 44.1599 23.6244 1251 2
41.1615 42.3633 24.9073 1198 2
48.2116 40.7354 21.3753 41038 2
44.1889 40.9548 21.8661 25049 1
46.22 40.5418 23.7062 2119 2
45.9945 42.9825 22.0452 1254 2
47.04 43.6106 24.9509 1253 2
48.9478 41.6453 24.0166 2113 1
49.0999 43.8147 22.5044 340 2
51.4491 41.722 22.9649 289 2
53.5228 43.6172 21.8043 1307 1
53.6866 40.9356 24.3238 20299 1
55.442 40.8536 22.1739 18427 2
55.1386 42.8978 23.7171 39218 1
56.2368 43.8309 21.4551 1350 2
57.6561 42.0478 23.7482 19337 2
60.5506 40.7958 23.3894 20206 2
61.4883 43.1027 21.5763 18479 1
60.8453 43.8429 24.2666 20298 2
59.33 43.7452 22.1771 1255 1
58.7045 40.1629 25.3728 18378 1
62.787 40.9274 21.8037 18379 1
63.7935 40.5287 24.4639 19338 2
63.4583 43.0383 23.1518 18435 1
65.7354 43.1988 22.0998 19384 1
65.882 44.2104 24.7072 21284 2
68.9279 40.1981 21.9297 18439 2
66.9946 41.44 23.9021 20305 2
69.9499 42.4454 24.1719 19389 1
68.7234 43.0399 22.4049 19396 1
71.6644 40.6294 23.9535 20353 1
71.2812 42.2505 21.4299 19401 2
74.2594 41.1575 22.847 20361 2
72.426 43.1506 23.6548 2141 1
73.936 44.061 21.5068 18488 2
61.5335 74.7019 38.8529 25295 2
19.0504 45.8423 23.2423 63282 2
20.3067 47.4081 25.1724 48662 1
21.2483 44.9584 21.1296 48570 2
17.7673 47.8402 25.2322 63280 1
22.4538 46.7457 23.2049 53468 2
24.2939 45.7758 24.8142 2088 1
24.3616 48.2776 23.9339 63527 1
26.1233 46.3653 22.9017 41064 2
28.4025 44.7548 23.0726 2049 1
30.2723 46.4816 21.9576 41946 2
28.3592 47.1656 24.1383 1131 1
30.0002 45.8072 24.7854 2046 1
33.3931 46.0254 22.8829 2157 2
32.026 48.9252 21.9211 41115 1
31.4412 47.9091 24.057 2922 1
34.319 48.1963 20.8792 2092 1
35.6012 46.3706 24.4541 3952 1
38.6471 46.2541 21.6355 41124 2
36.1614 47.0095 22.291 41990 1
38.5612 46.6676 24.7407 2159 2
41.4797 44.415 21.3689 1249 1
40.4807 45.0826 23.7589 2156 1
41.9154 46.7385 22.3674 1293 2
43.7528 46.7382 24.3946 2162 1
44.2931 45.4701 21.1784 1257 1
44.755 48.0354 22.4065 2169 2
45.6396 45.5982 23.1871 381 1
46.0639 47.2932 24.7812 21219 1
48.104 48.3623 25.2425 2214 1
48.1073 46.1329 23.4791 385 1
47.6921 48.7336 22.1868 41079 2
51.4392 44.7064 24.1296 25040 2
49.8872 46.7902 21.1641 1305 2
52.6247 46.2998 22.0604 1345 1
50.3854 47.811 24.098 2213 2
51.4124 44.4545 20.9655 2120 1
54.6647 45.6349 23.8392 1306 2
55.4073 47.586 21.7547 19426 2
56.6812 48.1541 24.4675 21280 2
57.7628 44.9466 24.2425 1303 2
61.383 45.8971 22.1336 20338 2
59.8876 47.5244 24.1613 2172 2
58.2216 46.5883 21.6604 20346 2
63.4073 45.273 24.1176 20304 1
64.4514 45.511 21.5278 19386 2
65.3801 46.7622 23.855 25875 1
62.9672 48.287 23.6159 18534 2
65.4163 48.795 21.9324 20344 2
68.6614 44.7106 25.1307 20308 2
67.4155 45.4511 22.2594 21192 2
68.1436 47.7677 24.0102 19439 2
69.7356 47.1627 21.3348 18476 2
70.7052 44.8559 23.0503 19436 2
71.2034 48.7307 24.1765 2268 2
73.5782 46.1582 23.905 20313 2
72.3292 46.401 21.4885 18542 1
20.0252 48.905 22.8251 63274 2
18.5901 51.5869 23.1108 54461 1
21.2986 51.6646 23.4134 63632 2
19.4726 50.3018 25.4217 63275 2
23.0163 49.8062 21.9992 48669 2
24.7632 52.0998 22.0548 63235 1
24.4213 51.2981 24.4701 63483 2
25.9064 49.1861 21.7435 2085 2
22.3229 48.9307 25.412 48858 2
29.2319 49.4543 22.9762 24951 2
30.8817 51.1131 21.4684 2040 1
27.3384 51.8676 22.7158 2089 2
26.8005 49.3775 24.947 63281 2
29.4127 51.465 25.5748 2973 2
34.3033 48.9699 23.5566 2095 2
31.8058 50.463 24.0478 40237 1
34.1307 51.4639 24.6828 41120 1
33.5337 51.7817 22.1865 2048 2
37.2164 49.0353 21.8329 2155 1
36.6422 51.4317 23.4481 378 2
36.9628 48.8707 24.4154 63642 1
38.8846 51.3435 21.2889 18505 2
38.585 50.5416 25.6581 1336 1
39.4616 49.0822 23.2496 1294 2
39.7852 52.1694 23.8434 1339 2
41.7406 52.3482 21.476 431 2
41.6808 49.3123 21.1826 2207 2
42.6271 49.965 24.1526 2200 2
42.8723 52.9258 24.5055 1388 2
45.2937 52.85 23.7134 1386 1
44.5344 50.9826 21.5233 383 2
45.563 50.1596 24.8437 1295 2
46.8972 51.2005 22.904 2240 1
48.8037 50.4543 24.0812 394 1
49.4747 52.151 21.9116 3092 2
50.4922 49.6354 22.2826 1351 1
52.4727 51.3576 23.4162 25001 2
53.1637 48.4845 23.5834 19428 2
55.4286 50.5977 22.795 1268 2
74.9534 27.5242 41.8267 9382 2
57.529 50.8125 24.7219 1310 1
58.2038 49.2459 22.6644 19470 1
60.5785 49.1056 21.1926 19481 2
58.9389 51.5662 22.0799 3150 1
60.3971 50.413 24.2716 20342 2
59.2014 53.1413 24.3989 19379 1
62.7428 51.2915 22.6371 19483 2
65.1647 50.8586 23.5917 20397 1
68.4274 49.6627 21.9692 25893 1
67.3954 50.3187 24.0653 25042 1
67.0774 52.4863 22.3627 19482 2
69.732 51.8127 23.8717 19488 2
70.6459 50.4622 21.8717 20352 1
74.0093 49.1084 23.6625 25871 1
72.7687 48.9927 21.1409 19445 2
72.9296 51.5196 23.257 19532 2
19.4555 54.323 23.0041 63500 2
21.0894 57.1531 23.2072 48680 2
18.2442 56.2729 21.028 63180 2
22.4247 54.2439 23.4347 63481 2
23.6885 56.0694 21.0793 63634 2
25.6085 54.4832 23.935 63188 2
23.9337 56.7871 23.8757 63485 1
30.5076 52.991 23.1856 40239 2
26.6674 56.9413 22.6261 63479 2
28.0645 54.5532 22.4496 3022 1
29.2551 55.0397 24.6847 2195 2
30.1423 56.8931 22.2471 25023 2
32.9884 54.411 23.4277 41977 1
33.4066 56.824 22.1715 428 2
32.1002 56.1835 25.055 2982 2
35.0787 53.8983 25.237 41170 2
35.4339 54.1068 22.1401 41126 2
37.4598 54.4828 23.7515 477 1
35.8089 56.7634 24.0025 376 2
37.669 56.5783 21.5643 1338 2
39.1449 54.1911 21.99 25067 1
39.4376 56.2793 24.3834 3191 2
43.9131 54.305 21.4132 435 2
41.3132 54.3167 23.1738 19545 1
42.7291 56.2889 22.9196 481 1
47.9488 53.1877 24.6609 1297 2
46.5039 53.3587 21.7488 438 1
45.4753 55.492 23.6808 1390 2
48.376 55.265 22.0726 1348 2
49.4581 56.2375 25.1032 20463 2
50.6606 53.8848 23.8197 19565 1
51.2638 56.4193 22.8629 491 1
52.469 56.2961 25.4397 1397 2
51.1655 54.4652 21.2084 1392 2
57.1903 52.8498 23.3558 1267 1
53.7461 53.0695 21.4256 1352 1
54.7612 53.1841 23.9054 19469 1
52.8123 54.635 23.2632 1399 1
55.2721 55.1272 21.9032 20435 2
55.0004 55.5806 24.7045 19657 1
60.5381 53.916 22.1295 20390 2
57.7019 55.6112 23.9221 25887 2
57.8719 54.2828 21.4747 19517 1
59.8279 56.6278 21.8277 18630 1
60.8068 55.8701 23.926 25865 1
62.0585 53.7159 24.8707 19476 2
64.8445 53.535 24.1522 19486 2
63.2975 55.9563 22.9154 19570 2
66.1162 55.7588 21.2614 19581 2
66.1004 56.0981 24.0388 19585 1
68.8336 54.842 23.943 19524 2
68.7147 54.4895 21.2648 19523 1
68.9183 57.0966 21.8952 19586 2
68.6598 57.5622 25.1831 19626 2
71.4397 53.6643 21.7345 19489 2
72.1729 53.9312 24.4722 20402 1
73.9815 56.8434 21.5986 19533 1
71.6478 56.3704 23.4877 20444 2
74.1639 54.6643 22.8949 19530 2
17.5443 61.6246 23.797 55544 2
18.1053 58.2646 23.1847 63187 2
19.512 61.1242 21.4714 53700 2
21.8315 59.8406 22.4654 63438 1
20.0512 59.6863 24.2244 63040 1
17.9105 21.8728 34.108 49611 1
24.2828 58.8478 22.2307 63433 2
24.3457 61.2323 24.033 54632 2
22.8029 58.7383 25.2638 63183 2
25.6731 58.6099 24.6518 63042 1
28.9125 58.479 24.4544 63272 2
29.5766 59.918 22.136 53557 1
26.9755 60.2605 22.8561 63227 2
17.7875 29.2261 41.5078 5601 2
30.8677 61.4219 23.7612 24954 2
33.7547 58.5429 24.6547 24941 1
32.2859 59.3807 22.6987 1382 2
34.0904 62.2011 22.6342 19499 2
37.8159 59.2804 24.348 1385 2
35.9504 61.1665 24.591 20458 1
35.5857 59.3182 22.4578 24999 2
40.4504 58.317 22.0739 429 2
42.0674 58.1439 24.2892 2333 1
42.7313 59.6589 22.7893 19607 1
40.4587 61.1411 23.6887 24937 2
43.9174 60.8913 25.0828 1441 2
64.3148 74.7541 61.4429 28042 2
46.8084 57.966 21.3145 18712 2
47.1825 57.3603 23.7958 1393 1
44.8869 60.3318 21.4274 1391 1
44.703 58.2441 23.5221 1387 1
46.6015 60.2482 23.5859 1445 2
48.5508 61.2787 21.8713 19616 1
52.0595 59.2556 21.0923 534 2
49.563 58.5014 23.0056 1447 2
51.6613 59.3672 24.6533 19569 2
49.1178 60.8491 24.2378 1444 1
53.8986 57.6109 22.9264 1398 2
53.8192 60.4799 23.2235 2342 1
56.5954 61.5189 23.0223 25862 1
56.5022 58.706 23.705 448 2
55.37 61.1585 25.0505 24996 1
55.262 59.8082 21.0841 20473 2
57.3842 57.2273 21.2033 1401 2
59.3918 58.23 24.246 444 2
58.539 60.3019 21.9097 19618 2
61.4503 60.2269 23.707 20476 1
68.8213 75.1492 40.1312 24665 1
64.1172 58.0328 20.5905 19574 2
61.6564 57.9723 22.7775 19572 1
63.7217 58.564 23.7598 19520 1
63.8985 61.1763 22.4388 19580 2
18.0904 65.5071 24.4251 50692 1
66.2512 58.7093 22.8574 1420 2
69.1963 59.8634 22.8759 20487 2
67.1879 60.4196 24.6893 20483 1
71.0952 58.6994 24.6465 20488 1
72.2551 59.3001 22.0642 20485 2
71.8084 60.893 24.0498 21396 1
70.7641 61.5337 21.4339 19632 1
74.8023 60.9678 24.8839 20497 2
73.5401 58.4841 25.3539 20489 2
64.1849 74.9828 30.0243 21783 1
40.1245 74.8038 39.9554 7262 2
21.4573 62.1078 23.8897 63425 2
21.25 64.2378 21.2836 54635 2
18.8857 66.0878 21.9939 50596 1
18.686 63.6928 20.9755 53783 1
20.8763 65.5498 24.0055 63177 2
19.1025 63.7312 23.2083 55588 1
66.8913 74.7201 44.4346 26222 2
23.3937 62.092 21.1692 63600 2
25.9124 62.6002 22.1377 63474 1
23.331 64.1244 22.9248 63141 1
25.448 63.9193 24.5181 63028 2
18.0044 28.8633 29.8716 56033 2
28.5496 62.7154 21.7026 5799 2
27.6967 65.4117 22.601 63144 2
28.3766 62.8697 24.8208 63176 2
30.9274 64.3405 23.115 5309 2
33.2162 63.9424 24.782 2284 1
37.5045 62.1903 22.0828 2288 2
38.8995 63.5039 23.9584 2286 1
38.1332 65.8457 23.0222 2328 2
35.9527 64.0733 24.5959 24997 2
40.3602 63.8299 21.8718 526 1
43.051 62.3648 22.3357 1440 2
41.5665 63.9081 24.8287 1439 2
42.1689 65.77 23.1261 572 1
40.5913 66.732 21.3298 19546 2
46.3791 62.4453 21.8873 525 1
44.7856 64.0425 23.7352 1442 2
49.1001 64.0746 22.2973 1446 2
51.1426 61.6807 22.8393 19660 2
48.8443 66.8341 22.1881 530 1
50.3828 63.264 24.7937 25036 1
49.8013 65.4458 24.4519 2338 1
52.2579 64.5904 22.9071 2381 2
53.0012 62.0291 25.2544 19617 2
56.3802 62.3734 20.8212 18770 1
54.6283 63.1301 23.2051 19665 1
56.5438 63.4124 24.8702 20518 1
54.2473 64.6458 25.2824 1490 1
56.2812 66.1208 23.7705 2430 2
75.1188 29.2848 44.674 26412 2
61.1696 62.2798 21.5907 18729 2
58.0405 63.9637 22.195 20521 2
60.9887 65.0166 23.1238 19670 2
58.4729 64.7426 25.0011 20522 1
59.583 62.238 24.1469 20525 2
65.4452 62.1405 24.518 19625 1
63.8256 63.9761 22.3943 1455 1
62.5126 62.7286 24.1155 25860 1
63.1608 66.3612 21.4514 18779 2
65.8141 64.3399 23.7852 2354 1
63.3742 65.217 24.3729 19624 1
65.8612 65.1016 21.6103 19629 1
67.7248 63.0486 25.1675 20533 1
67.1436 62.3555 22.2117 546 2
68.1417 65.4816 23.2337 18736 2
70.0238 63.1541 23.4446 20527 2
70.4042 65.4216 21.7382 1461 1
57.064 17.9733 52.5939 17234 1
73.2153 63.0484 22.7689 19679 2
74.4672 65.1582 23.4377 22590 1
71.6433 65.5007 24.0919 21693 2
73.28 65.858 21.278 43679 2
19.2212 67.8406 24.5554 54678 1
17.9682 69.8364 24.274 63016 1
20.6354 68.0848 22.5143 63142 1
22.3442 69.7052 22.1325 63128 1
22.3148 68.3474 24.8951 54677 2
18.8716 18.3927 45.3552 6437 2
25.1218 66.3602 23.3437 63140 1
22.8592 66.9837 21.8401 48693 2
24.4785 69.2291 23.2077 55682 1
23.3326 65.8446 24.5521 55685 1
25.4505 71.1567 21.747 3538 1
72.1618 74.8531 38.2153 22691 1
30.2405 69.7692 20.9463 63014 2
27.1841 68.2298 23.6962 63139 2
27.5701 70.2325 21.6941 50703 1
28.2328 67.9092 21.2692 1383 1
30.3258 67.3602 23.0688 4461 2
28.9284 69.8948 23.6762 48819 1
40.4089 66.9503 25.0232 1482 2
42.4733 68.7555 23.3378 18753 2
43.4696 66.5323 25.4031 2420 2
44.4811 66.6923 22.8349 579 1
47.0137 66.1431 24.058 578 2
46.6851 68.2365 21.727 1487 2
45.3382 68.6087 24.505 1483 2
48.3036 68.5802 23.9797 1528 1
44.7968 70.3269 22.3261 19699 1
51.9197 70.2604 22.3092 632 2
51.2152 67.4754 23.2024 1488 2
49.8152 70.681 24.6509 2426 2
54.1781 69.5179 24.2639 1533 2
53.6055 66.6777 24.2281 2427 1
54.4364 67.7243 21.6553 19710 2
56.6425 68.9521 23.0236 2425 1
58.2731 67.0826 21.4292 25882 2
60.9188 68.2874 22.5162 19718 2
59.2426 66.9127 24.3466 20569 1
58.8297 69.2785 23.8731 25855 1
63.5897 69.4524 22.5271 25856 1
65.7988 70.2448 23.6859 20824 2
65.466 67.2873 23.8773 20529 2
62.8881 67.506 23.9769 20571 1
65.89 68.1126 20.8899 21739 2
63.2428 69.7701 24.9753 21735 1
68.0392 68.0371 22.5159 25881 1
32.5021 74.8917 26.1331 3592 1
70.1061 67.7539 23.862 25816 1
69.6503 69.7502 22.6858 18741 1
67.476 70.4653 21.6476 21740 1
70.992 67.7705 21.6875 2396 1
73.3072 68.2867 23.1418 2592 2
71.7045 70.167 21.8797 21785 1
74.2717 70.2805 21.1938 25851 1
73.9309 69.4004 25.4179 21748 1
20.5067 70.509 24.1193 54810 2
21.8369 72.4175 21.9179 63116 2
19.2519 73.1776 24.9134 54859 2
18.437 71.855 22.7146 63105 1
23.7087 71.3474 24.0621 63124 1
22.2419 73.03 24.8853 63010 1
26.6706 71.4141 24.4381 63125 2
24.7045 73.8502 21.7055 22525 2
24.6317 73.8446 24.6135 48908 1
26.7199 73.8236 23.4951 24854 1
29.6048 72.2792 22.4587 3587 2
29.0318 73.9788 24.4649 4507 1
74.6438 70.8082 46.9966 26228 2
31.298 70.2115 23.7833 4458 1
32.9621 73.5667 22.1386 24933 2
34.6317 73.3265 24.9803 3602 2
38.9245 73.4509 25.094 22511 2
41.7202 71.7095 24.9573 2374 2
46.9054 70.8019 23.7147 3300 1
44.5277 71.5033 25.513 1532 2
50.401 72.4843 22.45 1534 1
48.5313 70.617 21.4584 1531 2
51.761 74.8166 23.8105 1537 2
49.614 73.2616 24.6633 32221 1
52.6992 72.3362 23.8951 2431 1
55.2219 71.0755 21.566 25821 2
54.9571 73.4917 23.0147 22631 2
57.0931 74.3463 24.4105 21729 1
57.0064 71.5129 24.3476 21476 2
68.0656 74.6249 52.4306 27162 2
59.4354 73.5602 23.4122 20618 2
61.1333 71.1485 23.6063 20619 2
58.5858 71.214 21.8608 19667 2
61.7195 73.6064 21.1489 21788 2
61.6672 74.802 24.3176 21776 2
63.9061 72.6349 23.3544 22588 2
17.9415 19.5803 28.851 59349 2
68.428 71.6917 24.239 21737 2
66.7702 73.2101 21.8957 21781 2
70.0167 72.1723 21.4158 22688 2
71.0709 73.3084 24.1651 25817 1
73.3191 72.335 22.6434 20834 2
74.4004 74.204 20.7018 20881 1
71.7096 74.8484 21.6348 20880 2
71.5043 70.6288 24.8245 22642 2
60.5119 18.6948 20.7756 31004 1
20.0444 18.841 26.6295 1881 2
19.2413 22.4271 28.3043 20051 2
21.107 20.0878 29.1922 2716 2
21.0844 21.8353 26.7727 25064 1
25.9277 18.8699 27.6724 784 2
23.0797 19.9574 26.5782 20009 2
24.7107 22.1715 27.4055 24990 2
24.0204 18.4505 29.1801 2718 1
26.8269 21.1644 29.2842 2772 1
27.614 21.2401 26.6932 2717 2
28.8753 19.0043 28.2048 1847 2
29.702 21.5719 28.5082 2776 1
33.4029 18.3518 27.8512 22538 2
31.1864 20.377 26.4595 1891 2
33.5371 21.0075 27.6638 987 1
33.4651 21.509 25.389 2726 1
31.7938 20.2816 29.8032 3653 2
35.1348 19.6438 29.9877 3660 2
36.3698 18.5062 27.6147 3659 1
35.3518 19.7058 25.6969 20120 1
38.349 19.2281 25.9965 21910 2
39.1122 21.7687 26.2785 3657 1
36.2637 21.4119 27.4472 1900 2
38.9625 19.2778 29.2103 3663 2
38.8342 22.0598 28.9775 3662 2
41.2625 20.3064 27.0181 22582 2
43.8419 21.3719 25.868 21871 1
43.3274 22.2319 28.4806 2784 2
43.8398 18.4962 26.9021 22714 2
41.4707 20.7098 29.7673 25771 1
45.5701 20.558 27.9049 12875 1
48.0962 20.3433 26.9692 23264 2
47.2927 20.0308 29.9731 21060 2
46.2758 18.2288 27.7452 22534 1
46.1047 65.1159 21.2728 574 2
51.2446 18.8447 26.9059 3670 2
48.6538 22.5387 28.8117 2736 2
50.667 21.7347 26.9282 21895 1
52.2068 22.1171 29.0864 22570 2
50.1832 20.1393 29.335 22528 1
52.9467 19.524 29.0279 21898 1
53.2517 21.2226 26.3957 2785 2
55.9363 20.7759 25.8167 23127 1
55.5216 20.2429 28.6246 22564 2
54.4516 18.3228 26.3979 22533 2
57.2514 22.5533 29.3747 12459 1
57.7984 21.1833 27.2369 23632 1
58.4092 19.0306 29.1514 21893 2
60.2952 19.783 26.8724 20993 1
60.0166 21.6683 28.5654 20141 2
74.8848 73.2619 28.4052 22644 2
57.7306 18.5185 26.0504 11602 2
63.0379 21.0749 28.0726 25850 2
64.9552 19.0157 28.9335 31025 1
66.128 21.1861 27.2221 11550 2
68.0894 18.8616 26.3454 30802 2
70.0388 20.0651 28.1452 1659 1
67.6463 19.4949 29.338 30814 2
67.5093 22.395 29.0551 12415 1
74.1425 17.9871 26.9884 12895 2
71.9901 21.7549 28.4067 11516 1
71.6824 19.8771 25.9596 22613 2
74.3256 21.0953 26.7869 30808 2
72.5391 19.5234 28.6212 12506 1
19.5234 23.5102 25.5583 1887 1
19.4016 25.3096 27.3572 1930 1
21.9062 26.0856 28.5306 2818 1
22.4565 23.2623 28.9735 1841 2
20.0976 25.2365 30.157 2809 2
21.9509 24.4327 26.271 1886 2
24.5509 25.6566 28.0339 976 2
29.5899 22.9248 26.3851 936 1
26.9067 24.2379 26.8806 1889 2
29.5159 24.6648 27.8491 2771 1
27.2424 25.6218 29.404 2764 1
28.1486 23.2461 29.151 24989 1
29.6685 26.3718 29.85 1892 2
32.1744 23.4161 27.1324 2775 2
31.3164 26.26 26.9017 1946 2
33.3591 25.6049 29.3728 2825 2
34.5403 26.7438 26.1495 25028 2
34.8592 24.174 27.6796 2778 1
37.3676 26.8262 25.9168 1951 1
37.5482 24.28 26.5529 25025 2
36.5728 23.5512 29.2337 5526 1
36.4496 26.4138 28.6615 2828 2
40.1238 26.9989 25.3583 1958 2
43.4236 23.7451 26.23 22532 1
40.644 23.9185 27.2372 23152 2
42.3691 26.1921 27.7851 3759 2
46.1416 23.0144 26.8239 4627 2
44.7561 24.7983 28.167 21900 1
47.31 25.9437 27.0308 2786 2
48.0465 25.2215 29.6656 4629 1
45.9402 26.1136 29.8585 3720 1
49.285 23.7953 26.0102 750 2
52.3636 24.1951 26.2561 2024 2
50.5872 24.6245 28.799 1107 2
50.1449 26.2372 26.5604 2027 1
54.0471 26.0629 27.0921 42770 1
53.1819 24.454 28.709 21056 1
56.5908 26.3995 26.7612 40027 2
55.3235 23.4088 27.4867 30857 2
57.373 25.0488 29.0031 2028 1
54.8389 25.9318 29.7081 1056 2
54.6546 23.0553 30.1462 2851 1
61.693 22.8416 26.3332 20104 1
59.1337 24.3192 27.147 20098 2
61.0924 26.2205 28.0471 20201 1
61.8784 25.8006 25.6501 713 2
61.9911 24.0293 28.3937 20096 1
64.1608 23.9852 26.1644 20100 2
64.0733 26.4546 28.3175 19684 2
64.594 23.7073 28.9364 25880 2
69.4422 22.2976 27.1187 12867 2
66.9193 23.7757 27.1552 12414 1
66.5111 26.3489 26.491 25879 2
69.4597 25.3732 26.561 19196 2
67.6752 25.0112 29.4583 12419 2
70.3228 24.3113 28.9791 20160 1
71.8911 25.3889 25.0348 19299 1
74.2891 22.4194 29.243 12890 1
74.3042 23.4595 25.3625 20157 1
72.8403 24.4199 27.5624 1651 2
72.1714 25.9308 29.833 21047 1
18.3266 29.1136 25.9253 63548 1
19.9084 27.8805 27.7479 2763 2
18.8274 31.0755 27.632 1936 2
20.6595 30.2145 29.3959 1982 1
62.1345 75.0874 34.0317 23539 2
21.8989 29.8994 27.4826 1929 1
22.4083 27.688 26.1564 1885 2
25.6937 29.1853 27.6445 1941 2
23.238 28.5 29.1624 2859 2
28.1604 27.0328 27.0331 2769 2
27.8016 29.5161 25.9451 25059 1
30.0044 29.0957 28.3075 2864 2
27.4518 27.9825 29.4694 1935 1
29.9526 31.3631 29.6655 20205 1
31.9312 29.2373 26.8076 2872 1
34.5144 29.5759 26.3249 24982 1
33.5924 28.1758 28.0878 24984 1
32.6255 30.9407 28.9735 1993 2
32.2747 28.2803 30.2717 3800 2
39.308 27.1461 28.1144 4664 2
35.5529 29.6254 29.0389 3752 2
37.3963 29.2565 26.508 2831 2
38.4256 29.5463 29.1782 2862 1
39.9395 29.7938 27.2496 2873 1
42.5335 28.8319 26.7053 2069 2
41.1564 29.1461 29.59 2879 2
43.903 27.6668 29.7987 2941 1
45.6032 28.9082 25.788 41849 2
44.9263 27.1704 27.6529 2006 1
44.2477 29.9555 28.6986 2789 1
44.3214 31.1253 26.6191 3713 1
46.8886 28.6401 28.9389 2984 2
52.1651 26.9734 25.8 2026 1
48.918 30.8223 30.5395 2897 1
48.8215 28.6985 26.4491 2072 2
49.137 27.2143 28.6274 2893 1
52.0754 27.2749 28.6538 2898 2
49.7619 29.4296 28.8084 3666 1
52.5257 30.2089 28.6848 1156 1
51.4025 29.6396 26.4439 25056 2
54.4018 28.7915 27.6098 23129 2
56.5361 27.8987 29.2798 2071 1
55.6585 30.6266 29.2329 2029 1
59.0914 27.0131 29.5922 3827 2
59.2896 27.3131 26.0629 19234 2
57.8454 29.5566 27.5784 20145 2
61.7319 28.8854 27.1471 25878 2
60.0085 29.5987 29.3558 2856 1
64.1279 27.8199 25.5549 20151 2
64.1635 29.0226 28.4014 20209 1
65.9872 30.1772 26.8075 21002 2