ITEM: TIMESTEP    
150000     
ITEM: NUMBER OF ATOMS  
77888     
ITEM: BOX BOUNDS pp pp pp
17.607 132.393    
18.0782 131.922    
26.2947 123.705    
ITEM: ATOMS x y z id type
19.5864 20.7558 27.2297 72779 2
19.064 19.4699 29.5974 1881 2
19.593 22.0998 30.3805 1887 1
22.0189 19.3651 29.2552 1839 2
21.5513 22.3828 28.2957 977 2
20.7445 18.1708 26.8953 20011 1
25.3413 19.8025 30.1727 22628 1
24.3974 20.1566 28.1098 926 1
25.9874 18.2893 28.4845 23170 1
22.7646 21.3844 30.5533 1848 1
25.4141 21.5877 26.4796 978 1
27.9859 18.7369 27.3117 72824 1
30.087 20.0673 28.8373 20062 2
27.0245 21.0639 28.3091 1846 2
27.9015 18.5415 30.1957 1845 2
29.5959 22.394 27.4365 1895 1
33.2245 20.5503 28.7198 43709 1
32.009 21.4439 30.3575 25026 1
34.8196 20.8912 30.6093 2726 1
34.2519 21.885 26.8147 19151 1
34.0431 18.9791 26.4554 24988 2
31.7451 20.678 26.3137 25063 2
32.3265 18.2471 28.4562 2719 1
36.0416 19.8907 28.1288 1851 2
39.0377 20.7679 27.8873 22537 2
37.2643 21.4539 30.3315 1899 2
38.0944 18.1714 29.1618 22536 2
38.2216 18.9297 26.3497 40829 1
41.5022 19.4704 29.3445 1854 2
43.9523 18.483 30.6732 23128 2
42.2508 19.5228 26.6946 43666 1
43.8874 20.9454 30.1842 21871 1
42.2525 22.0902 27.8468 40934 2
41.9211 22.0717 30.4964 3665 1
44.7779 19.5967 27.8257 1099 2
47.8082 20.4719 27.4336 40834 2
46.7038 18.9477 29.9277 22576 2
47.7627 21.5389 29.6301 1908 1
50.5995 18.8703 27.214 38521 2
50.2081 21.5264 27.2659 40893 1
52.6007 20.0522 30.0607 22574 1
49.6947 19.7606 29.7387 22529 2
52.8591 21.0636 27.3154 38365 2
51.0429 22.2093 29.7616 1110 2
56.0917 18.7272 27.006 21944 1
55.2218 19.9378 29.0821 12513 1
55.6431 21.429 26.7238 39988 2
57.0374 21.4753 29.5809 13500 1
53.5854 18.126 28.2455 2787 2
60.6339 21.9901 27.3181 31298 2
60.9571 18.5606 29.5728 19184 2
59.6926 21.8416 30.1119 31285 2
60.6776 19.1797 27.1638 31004 1
58.2907 19.8796 28.2123 38509 2
64.7326 21.3694 29.1605 21892 2
62.4431 20.3479 28.453 31021 1
64.4884 19.5562 27.0771 30371 1
64.1378 18.3702 29.7079 30999 2
65.3413 22.02 26.2993 30838 2
66.7346 19.2983 28.1449 31023 2
69.5176 21.3449 30.2121 19245 2
67.3208 21.7972 28.457 31293 1
70.2111 18.72 29.6478 38366 1
69.3571 20.0176 27.582 30997 1
67.0288 20.4874 30.4973 20998 1
68.0615 18.3912 30.1836 30809 1
74.7355 19.745 27.7573 31289 2
71.8988 20.8373 28.694 30996 2
73.8594 21.7999 30.0103 12413 2
71.4506 18.1962 27.0351 30343 2
72.9946 18.4885 29.8362 21403 2
18.9417 23.8004 28.224 1928 2
19.4407 26.43 27.0203 970 1
20.7743 25.871 29.3042 1885 2
21.8056 26.6798 27.101 52493 1
22.9191 24.6718 27.5051 25062 1
24.3635 22.8743 28.9208 25024 2
23.4474 25.7051 29.5415 1888 1
25.5812 25.1207 29.2089 1945 1
26.6178 23.0321 30.0119 1884 1
27.7652 24.6269 27.805 1943 2
30.2819 25.6047 29.0468 40920 2
29.671 22.8192 30.1987 1944 2
30.2714 24.8919 26.3387 933 2
32.088 22.9484 28.2867 989 2
33.0636 25.4205 29.4353 1035 2
35.1325 23.1672 29.1912 25027 2
33.6367 24.7506 26.6689 1999 2
35.9647 25.0924 27.3526 40922 1
37.4399 25.3885 29.4152 2729 2
36.9577 22.6557 27.2837 40928 2
39.6244 23.2112 29.1859 3770 2
38.4998 24.9404 26.4206 43667 2
40.7686 25.0697 27.7658 1956 1
42.044 24.3339 29.5935 2782 1
43.3104 24.6771 27.7312 41801 1
40.2107 26.4289 30.1974 1958 2
44.0177 23.3232 30.0707 22532 1
39.9082 22.818 26.3096 2790 1
45.4684 22.5658 28.1198 43705 2
46.4164 25.4537 27.3913 40939 2
46.6551 24.0265 29.8652 1153 1
44.7834 25.9656 29.7351 2837 2
48.8511 23.775 28.4118 40989 2
52.056 23.8472 27.3861 19180 2
50.7856 25.9377 28.5882 2020 2
52.7184 26.6669 26.3494 1165 2
54.3779 22.5177 29.5692 23176 2
53.4663 25.8747 28.9611 23642 1
55.0096 24.3822 27.4178 40025 2
55.6166 24.9398 29.9919 40030 1
57.1716 25.2016 26.3902 18326 1
57.379 23.6962 30.2824 23172 1
57.5783 26.1391 28.833 18330 2
57.8616 23.0939 27.7534 38629 2
59.6154 24.4317 29.8023 20148 1
60.4705 25.0193 27.5008 199 2
62.8511 23.1729 26.5747 30803 1
62.4395 23.3251 29.1898 19285 2
64.4915 25.3182 30.172 20106 2
64.6033 23.922 27.9509 18327 1
62.67 26.409 27.8803 19229 2
65.5546 26.2494 27.9027 18337 1
69.9113 22.5143 27.0079 31019 2
69.5533 24.4415 29.4443 1065 2
67.2748 25.5793 29.2606 19241 1
67.2617 24.0939 26.9917 31294 2
70.3172 25.344 26.8334 44061 2
67.0949 23.3594 30.4178 31002 2
73.217 25.3785 27.1748 44079 1
72.0292 23.6922 28.5509 12457 1
71.7448 26.0363 29.1191 30290 1
74.0036 24.7196 29.3046 43162 1
74.5256 22.7303 27.2972 39972 2
18.2792 27.2569 29.1185 63548 1
19.7812 28.9985 27.6639 1933 2
21.5301 30.7755 29.2548 1071 2
17.989 29.8856 30.2453 1936 2
24.7075 26.8757 27.4317 25061 2
22.2594 27.8585 29.1114 63545 1
24.304 29.5891 28.2231 1023 2
25.5467 27.4128 30.4541 1025 2
22.3128 29.1411 26.4628 975 2
26.6575 28.813 27.16 986 1
26.6971 29.8484 29.5877 40916 1
27.8935 27.2273 28.7684 39954 2
28.6538 29.9566 28.1098 19240 1
29.5466 27.6336 26.7577 41796 1
30.3002 28.5363 28.7182 983 1
30.7811 29.6496 26.524 1020 1
33.3906 29.6944 27.6407 41885 2
32.1374 27.3113 27.3029 43811 2
32.4227 28.3518 30.2256 41845 2
33.3725 30.8276 30.2254 1033 1
34.9945 27.2 28.6744 40926 2
37.1316 27.2107 27.3039 2779 1
38.3178 30.9213 29.2325 2010 1
37.6747 28.342 29.426 1083 1
38.7588 29.4806 26.9585 1907 2
36.0082 29.2927 26.6368 2000 1
35.7861 30.3402 29.3184 41893 2
39.3172 27.0245 28.0162 2836 1
42.3365 27.12 28.2993 41842 2
43.4696 29.9791 28.7608 43703 2
40.669 29.4574 29.2075 40975 2
41.6995 29.2979 26.6816 1897 1
45.1772 27.915 28.0486 40985 1
46.7069 30.0129 27.8762 41032 2
48.1308 27.2418 28.7435 40935 2
45.6001 28.7196 30.6011 41849 2
49.273 29.7494 28.4912 1954 1
50.8544 28.3993 27.3275 42717 1
50.6255 28.5279 29.8667 2027 1
51.8512 30.8012 28.3657 1163 2
52.855 28.1221 28.6792 40996 1
48.8222 28.8601 26.3642 41894 1
53.2724 29.2073 26.6158 1105 1
55.1559 27.7057 29.9686 20144 2
55.0102 30.411 28.3992 248 2
55.5989 27.5649 26.9447 19382 2
60.2496 27.3969 28.2536 246 1
57.8537 29.1872 28.5418 19231 2
61.2679 29.5033 27.0911 2792 2
60.5105 30.4489 29.9884 200 2
59.4464 31.1923 27.6705 1109 1
58.3753 27.335 26.6096 19227 1
61.9467 28.3999 29.4155 19243 1
64.2572 28.8152 27.6263 19242 2
63.7454 30.5743 29.507 20214 2
68.2382 27.0488 27.2674 30998 2
69.3707 27.6185 29.8504 19186 2
66.473 28.1011 29.6927 12515 2
67.1362 29.863 27.8622 30833 2
68.9127 30.781 30.6674 20158 2
69.5921 29.187 26.4636 44057 1
70.6096 29.5998 28.7493 43818 1
74.4006 27.3535 28.9306 30993 2
72.9022 29.6219 28.7845 43804 1
71.8591 27.8466 27.1603 18339 2
71.7189 30.8816 26.3956 43793 2
71.9478 27.7868 30.6024 18336 1
74.5939 29.7294 26.8259 39105 2
18.5922 33.739 26.5735 74584 1
18.2547 34.7227 29.2012 1017 2
21.0818 33.2821 27.9928 1060 2
20.7151 35.2742 29.6893 63543 1
17.8194 31.7442 28.0553 63536 2
19.8107 32.4255 30.3797 1934 2
20.2969 31.3425 26.5024 72807 1
24.4297 31.8476 29.8528 63681 2
23.9442 34.1512 28.0488 43702 1
22.7865 34.0072 30.2337 1069 1
23.3269 32.0756 26.9766 72814 2
26.2743 33.5566 29.0077 1070 1
26.3408 31.4119 27.2084 40917 2
28.2232 32.1551 29.1498 40965 1
28.4291 34.2306 27.3511 1031 2
29.9064 33.6832 29.9957 2916 1
29.4299 31.8621 26.7914 979 1
27.7171 34.8677 30.2538 1989 1
30.966 31.3191 29.1637 1940 2
34.8351 34.2712 28.9124 24974 2
33.598 32.1699 28.3787 984 1
31.5209 34.1955 28.1861 1029 2
32.0673 31.6489 26.297 41022 1
36.5153 32.1974 27.2971 1077 2
39.1414 32.9422 27.8589 1199 2
36.6611 35.2004 27.2073 41937 2
37.0344 32.9285 29.8644 1080 1
38.9531 35.0919 29.3807 20283 2
39.4688 35.3125 26.507 19202 1
36.7701 35.5485 30.3525 1995 2
41.0315 31.2744 27.3212 42701 1
41.1915 34.3885 27.9986 2002 1
41.7378 32.3536 29.6862 2004 2
43.5898 32.36 27.1418 41848 2
41.9426 35.471 29.9273 2944 1
44.2632 34.601 28.4114 2990 2
48.0869 31.4111 29.3783 2942 1
47.1937 34.1385 29.0779 2067 2
45.2412 32.0825 29.6484 43700 2
46.1736 35.5548 26.549 1197 1
46.7361 32.8805 26.7462 197 2
50.1234 33.3383 29.1642 237 2
52.1744 35.2963 29.8391 2022 2
51.8358 33.5601 27.3066 291 1
52.4622 32.645 30.3121 2902 1
49.2112 34.9079 26.4988 1211 2
49.2347 31.8274 26.6628 41898 2
48.7708 35.1434 30.7113 236 1
56.4799 34.5242 28.0456 19334 1
54.2338 33.4135 28.1232 20251 2
55.5 34.0219 30.226 1208 1
54.5632 31.8241 30.5405 249 1
57.3026 32.0625 29.2684 2077 2
57.1143 31.8243 26.3194 39077 2
59.0289 33.8987 27.4011 241 2
59.6829 32.9314 29.6161 19233 1
57.7872 34.7523 29.9726 19235 1
60.4568 35.592 29.549 2121 2
61.6622 35.2974 26.5242 1111 2
61.7632 32.4963 27.765 1112 2
63.0716 35.2395 29.0206 43165 1
64.6391 31.7166 27.0938 18380 1
63.9181 33.142 29.0658 19341 1
64.8985 34.5136 27.1834 19232 2
65.4272 34.7921 30.3243 20256 2
66.4192 32.2266 29.2556 19289 2
67.9118 34.9375 29.6006 19339 1
67.1477 32.2255 26.7209 19288 1
69.2496 31.3598 27.6378 20162 1
69.3673 33.3506 28.5789 19293 1
67.475 34.61 27.3186 20215 1
73.7737 32.6582 27.4915 19297 1
71.648 32.1009 29.0761 19246 2
73.2508 35.107 28.3645 43988 2
71.3604 33.7154 27.0326 18438 1
74.6901 33.9398 29.9701 19301 2
71.4581 34.6396 30.389 19295 2
74.7118 31.3896 29.2511 43989 1
21.2389 38.4136 26.4909 1987 2
19.7148 37.0806 28.3706 63542 1
21.753 38.7466 29.9332 1979 2
18.3877 36.207 26.6427 74330 1
18.5016 38.4924 26.3449 63669 1
20.6209 35.6234 26.7343 63683 1
22.5312 36.517 28.4552 1988 2
24.5963 38.9301 28.4715 2036 2
25.1284 35.9308 29.9086 1075 2
24.3525 36.5801 26.7724 2034 1
29.58 36.3817 29.2901 1074 2
26.8885 36.7747 27.4224 41015 2
29.6963 39.5746 28.2996 1028 2
27.4833 38.597 29.3875 1122 2
30.1946 36.9504 26.7009 1027 2
32.2041 39.269 26.5809 1135 2
35.0903 37.5195 28.9739 2829 2
31.9689 38.2161 28.834 1079 1
33.1496 36.1079 27.5133 41936 1
32.4906 36.1987 30.1969 1997 2
34.3755 39.8755 27.6821 1998 2
37.9463 37.6117 27.4541 41068 2
37.2348 38.3751 30.3717 2061 2
40.5882 36.9043 28.2776 40988 1
42.5299 39.0094 26.8282 1204 2
42.7233 37.7624 29.4791 2066 1
39.8705 39.5065 28.7707 41984 2
42.3922 36.2143 26.5839 41024 2
44.5783 37.1072 27.6654 1159 1
44.7363 39.0337 28.898 41031 1
47.2972 36.9991 28.4854 330 2
44.9849 36.3903 30.2971 2995 2
48.2818 39.9502 28.4607 2119 2
46.5885 38.8227 30.4337 25017 1
46.0049 39.2358 26.6745 286 2
49.1639 37.9799 30.2846 1213 1
49.856 36.1421 28.8817 41035 1
52.3321 36.3912 27.442 1155 2
51.7702 38.1588 29.616 1162 2
49.8366 37.9446 27.0045 40108 2
53.5295 39.0152 27.2166 18473 2
56.0971 38.775 27.5602 41085 1
55.179 36.5303 29.2595 20297 2
54.6249 39.024 29.7027 388 1
57.2996 39.3891 29.8415 18430 2
55.1098 36.4147 26.3474 44000 2
57.9832 36.6549 27.8475 288 2
61.2969 38.3566 27.2057 18381 2
59.6286 38.1943 29.2769 18376 1
58.4159 39.5058 27.0541 19282 2
62.2836 37.9677 30.015 19286 2
63.7137 36.8076 27.5235 1119 1
64.5467 37.058 29.8392 20213 1
65.6209 39.1065 30.4196 20260 1
64.0877 39.1875 28.4707 44031 1
65.1838 38.3937 26.3711 19236 1
66.7736 37.0619 28.2389 19281 2
68.8335 38.567 28.1498 19290 1
67.9926 39.0436 30.1739 163 1
70.1063 36.0156 28.1363 19349 2
70.6224 38.2321 26.7033 18383 1
70.9834 39.3546 29.5723 18437 2
72.0001 37.0556 29.8802 25899 1
73.9105 38.6774 30.145 19352 2
72.7464 37.5962 27.8359 18386 1
74.1739 39.6067 27.7636 18489 1
74.5877 37.3208 26.3204 18385 1
19.4667 40.0185 28.4439 63537 2
19.1803 42.5467 29.482 63648 1
20.5258 42.4435 27.456 63678 1
21.2466 41.6599 29.7625 63529 1
22.215 40.3951 27.8186 2045 1
22.6688 42.711 27.9753 21093 1
23.558 40.9186 30.04 2039 1
24.8501 41.8177 27.3321 41066 2
24.137 43.4018 30.0461 63091 2
26.3954 41.2059 29.9236 2037 2
26.2154 43.9039 28.7183 2969 1
27.1369 40.0037 26.765 41016 2
28.2439 42.4959 27.9261 43701 2
29.5289 41.7302 30.7038 25055 2
30.8602 41.9363 26.5118 41883 2
30.9186 43.549 28.8745 2090 2
31.8587 40.7275 28.9541 41941 1
33.7167 42.8687 28.4956 2051 2
31.9333 44.2566 26.3938 24950 1
37.3038 40.4017 27.6187 41072 2
38.3404 41.9272 29.8051 1202 1
36.7564 43.9287 28.4702 41939 2
39.1651 42.8388 27.5076 3133 2
35.7258 41.1444 30.0815 2053 2
36.1425 42.3914 26.521 2056 1
41.5908 41.7422 27.4611 1200 1
40.9429 42.2224 29.8426 1198 2
42.692 40.315 29.3001 25047 1
43.5901 43.0615 28.4551 1251 2
44.2694 40.9795 27.4151 25049 1
46.3912 42.4944 27.5359 1254 2
45.7633 41.4013 29.9701 25018 2
48.6829 42.3613 28.9692 2113 1
51.0661 40.3195 27.9437 290 1
51.2718 42.9127 28.486 289 2
50.2519 40.6966 30.3838 2074 2
52.8487 40.8816 29.2919 20299 1
52.898 41.699 27.0973 1167 1
53.5614 44.3254 27.003 1307 1
55.401 41.4571 27.8441 18427 2
53.8777 43.2187 29.2331 39218 1
56.8914 43.7856 29.4956 19337 2
57.9141 42.8829 26.6097 1350 2
57.93 41.559 28.8604 18378 1
60.2754 40.6466 29.2944 20206 2
59.5927 43.2991 28.5651 1255 1
61.9524 43.0176 30.48 20298 2
61.9022 43.0104 27.627 18479 1
62.5189 40.8771 28.1715 18379 1
64.6307 41.928 29.4574 19338 2
63.974 44.2006 28.3714 18435 1
64.3964 42.0619 26.5098 19387 2
66.5326 40.1151 28.0334 18433 2
66.6617 42.7568 27.8059 19384 1
69.2647 41.2319 27.7743 18439 2
68.5161 43.5379 28.856 19396 1
70.0986 41.9276 30.3366 19340 1
67.6269 41.5211 30.5638 20305 2
71.7597 40.3888 27.2058 18443 1
70.8003 43.7778 28.9487 19389 1
72.1491 41.7375 29.1156 20353 1
74.6702 41.8768 29.7345 20361 2
71.7527 42.9572 26.6746 19401 2
73.2153 44.0004 28.6652 2141 1
21.346 44.4709 29.1821 63528 2
18.6893 44.7936 27.9416 63282 2
18.8507 47.2825 29.4814 63280 1
21.1809 46.9806 27.7722 53468 2
20.8588 47.0188 30.5449 48662 1
23.9403 45.3004 27.4923 63650 2
23.5406 47.6469 28.8138 2088 1
25.8858 46.2514 30.016 2044 2
24.9508 47.861 26.3547 41060 2
28.4921 44.486 30.4442 2971 2
27.2148 46.1267 27.4665 41064 2
29.5903 45.6631 28.3243 2049 1
28.4792 47.3775 29.5369 1131 1
28.5524 48.5428 27.5471 41062 1
30.9126 45.9687 30.3738 2046 1
30.9853 48.2565 28.6467 41946 2
32.676 46.2129 27.9334 2157 2
34.6006 48.1969 28.8286 2095 2
34.9935 45.4703 29.7296 3952 1
32.818 44.6018 30.4331 2979 1
32.6518 48.5258 26.5721 2092 1
33.0608 46.9983 30.5142 2922 1
39.0587 44.4884 29.8151 2156 1
38.9735 45.8648 27.3263 41124 2
35.9597 46.4669 27.6429 41990 1
37.7212 46.8149 29.7232 2159 2
37.2019 48.5347 27.5608 2155 1
41.2972 44.5691 28.5525 1249 1
40.5953 46.6549 29.5765 1292 1
43.4541 45.6891 28.6143 2162 1
41.6084 46.6744 27.005 1293 2
43.0276 47.5185 30.4876 25009 2
43.3383 44.9057 26.3662 1257 1
47.2242 44.3897 29.9593 1253 2
44.9456 47.7166 27.3216 2169 2
45.7405 45.0808 28.0149 381 1
45.7885 46.9799 29.8668 21219 1
47.4336 47.1732 28.3323 385 1
47.5503 48.6765 30.2712 2214 1
44.7356 44.4837 30.6778 19458 2
51.2111 45.1444 26.8706 2120 1
50.0407 47.5428 27.0601 1305 2
48.7538 44.6613 27.6292 340 2
51.8094 47.7802 29.5833 1345 1
49.3077 46.5628 29.9329 2208 2
51.9703 45.2365 29.4935 25040 2
54.9359 45.6759 29.217 1306 2
56.2888 47.1025 26.9537 19426 2
56.7743 47.8199 30.132 21280 2
53.0315 46.8958 27.1398 1298 2
55.9133 44.5092 27.1785 1264 1
54.195 47.7814 30.7046 3089 1
58.4759 45.9753 28.4924 1303 2
59.9714 44.6967 30.4339 25046 1
60.1961 48.6006 28.2332 2172 2
60.2272 44.5526 26.399 43957 2
61.7592 45.8569 28.5988 20338 2
62.9302 47.7369 30.0607 259 1
63.6264 45.4019 30.4428 20304 1
64.7506 46.5213 27.9591 19386 2
62.7618 48.2976 27.3293 1274 1
66.1122 47.4924 30.1463 25875 1
66.1999 44.6118 29.947 21284 2
67.8505 46.1071 28.0239 21192 2
68.9979 47.765 29.922 19439 2
66.6924 48.6256 28.1746 25042 1
70.4606 46.0358 27.5114 19436 2
72.8205 45.5387 26.6386 18542 1
74.7758 46.1517 28.4992 20313 2
73.2745 48.0576 26.872 19445 2
72.0836 46.3557 30.0059 25873 2
19.0674 49.414 28.1176 63274 2
17.8836 52.0967 28.2397 54461 1
21.0603 49.4531 29.7256 48858 2
20.2307 52.8082 29.4053 63060 2
18.4567 50.7681 30.5692 63275 2
20.1675 51.6689 26.6442 63632 2
26.1201 48.9269 28.7378 63281 2
23.851 50.1249 28.8805 63527 1
25.4842 51.5675 27.2688 2085 2
22.3778 51.9043 28.2703 63486 1
25.2426 52.0982 29.7673 63483 2
22.4125 49.608 26.7391 48669 2
30.1753 50.3293 26.4542 41110 2
27.9904 51.1801 28.5846 24951 2
29.9198 52.8558 28.375 2040 1
30.7944 50.9088 29.0404 40237 1
27.9807 52.7818 26.4688 50477 1
32.7868 50.1431 28.0145 41115 1
34.8295 50.9909 29.2792 41120 1
32.7569 52.7253 28.2698 2048 2
37.4794 51.2409 28.1986 378 2
36.6737 49.2222 29.7197 63642 1
38.6132 50.5501 30.4524 1336 1
39.2973 52.5281 26.3471 25067 1
39.613 48.8004 28.512 1294 2
35.2879 50.1698 26.4433 41077 2
40.483 51.7406 28.576 1339 2
42.2797 49.3788 27.7774 2200 2
43.7047 51.8465 27.7369 383 2
42.4595 50.625 30.4181 2242 2
47.6825 49.3644 27.0571 41079 2
45.3065 49.8928 29.5147 1295 2
46.2758 51.4291 27.785 394 1
47.9849 51.4475 30.0832 25836 2
51.4786 52.4607 26.3975 436 1
48.7784 52.429 27.1883 3092 2
49.9298 49.675 28.9144 2213 2
52.1059 49.9399 27.1392 25001 2
51.0557 52.3928 29.2875 4065 2
52.5919 49.9495 29.8327 1301 1
54.74 49.0869 28.3729 19428 2
56.4362 50.9363 26.9857 1268 2
54.0523 52.1199 28.6644 25885 2
56.6532 51.0636 29.79 25890 2
57.7712 49.0489 28.0132 19470 1
59.0145 51.2058 28.6133 3150 1
60.6655 52.6104 29.3688 19379 1
58.61 49.4647 30.4522 1310 1
61.6398 51.0111 27.3805 19483 2
61.2578 50.2346 30.284 20342 2
64.278 49.575 28.968 18534 2
64.195 51.8173 27.8046 20397 1
63.6547 52.0717 30.4393 20392 2
68.8115 48.9909 26.5836 18476 2
66.9779 51.3985 27.8453 19482 2
69.1587 50.4553 29.2886 1224 1
66.7463 50.42 30.3497 20351 2
70.1489 52.0767 27.2071 19488 2
68.6214 52.9501 30.1959 20391 2
74.1708 48.8717 29.6219 25005 2
71.1834 49.062 28.4011 2268 2
73.1579 50.8622 27.5032 19532 2
71.4341 51.7737 29.9415 20394 2
73.8843 51.5521 30.4685 19485 1
18.7445 54.8162 27.6217 63500 2
21.4445 54.4562 27.2389 63481 2
20.7484 57.1745 28.8036 48680 2
22.1496 54.9023 29.8601 63046 1
23.7352 53.7481 28.3795 63235 1
23.379 56.4769 27.511 63634 2
24.8893 55.7304 29.9477 63188 2
22.9072 57.3674 29.8933 63485 1
25.8019 54.6174 26.6903 2084 2
27.5704 54.3809 28.9542 2089 2
29.1513 56.9129 29.1708 3022 1
29.0044 55.3891 27.0491 40191 2
26.4722 57.345 27.9203 63479 2
30.5919 54.847 29.7875 40239 2
32.012 55.6102 27.1979 42703 2
33.6392 55.202 29.099 41977 1
34.7802 55.9272 26.8815 41126 2
31.9342 57.4107 29.7912 2982 2
35.7098 53.2921 28.2767 41170 2
37.0556 55.4966 28.0261 477 1
38.2393 56.2379 30.0243 3191 2
38.7402 53.8114 28.4633 19545 1
39.3772 56.2785 26.7173 1343 2
35.7023 55.2485 30.6608 376 2
39.8489 54.0506 30.5756 2201 1
42.539 56.7966 26.874 435 2
42.2556 53.547 29.5781 1388 2
40.6529 55.5069 28.783 481 1
43.133 56.0721 29.9778 2289 2
41.6613 53.9464 26.6547 431 2
45.3273 53.1235 29.9967 1389 2
44.2668 54.6888 28.1281 1386 1
46.3559 53.6619 27.6271 2240 1
47.6425 55.7071 27.1607 1348 2
46.06 55.6126 29.5567 1347 1
48.3976 54.165 29.9116 1297 2
45.1432 57.3602 27.9312 1390 2
50.46 54.3466 27.8794 19565 1
49.8014 56.6824 28.6116 20463 2
51.8236 56.5854 27.0295 1399 1
52.3909 55.4793 29.662 1397 2
52.8981 54.2021 27.566 1352 1
57.2536 53.1086 28.2056 1267 1
55.0472 54.7692 29.0184 19469 1
54.3501 56.3558 26.7789 20435 2
54.3176 57.0905 29.5237 19657 1
55.275 53.5813 26.9934 19473 1
56.978 55.1974 27.3329 19517 1
56.7399 57.1222 28.9498 448 2
59.8444 53.7876 27.0733 20390 2
58.928 54.8223 29.8727 25887 2
59.1922 56.3508 27.6498 18630 1
61.2654 56.5385 28.738 25865 1
62.5675 54.2012 28.712 19476 2
65.7652 53.6689 28.6311 19486 2
64.2052 56.6737 27.8521 19570 2
63.5102 54.2629 26.3807 18633 2
64.5772 55.748 30.434 19478 2
67.0002 56.1183 28.5555 19585 1
68.2756 54.3683 27.9763 19523 1
69.2755 56.9014 26.8425 19586 2
69.2516 57.4537 29.817 19626 2
67.1796 55.2471 30.7214 20445 1
70.5999 54.7272 28.8045 19524 2
73.0301 53.8389 30.0683 20447 1
72.6065 53.4085 27.6766 20402 1
73.5677 56.1929 27.8505 20444 2
71.3626 57.4847 28.6338 20488 1
74.8481 55.4753 30.3041 20446 1
18.0546 58.0098 27.585 63187 2
21.2392 59.4001 27.211 63438 1
19.2396 60.0187 28.6933 63040 1
19.2018 58.4316 30.3773 63185 1
21.8434 59.8509 29.9167 63183 2
18.7549 60.6313 26.3008 53700 2
23.874 59.3809 27.6696 63433 2
25.3563 58.6053 30.4368 53648 2
25.8578 60.926 29.2635 63042 1
22.917 61.3213 26.349 63598 1
28.0592 59.5215 29.5382 63272 2
26.8502 60.0168 27.3667 63410 1
29.4863 60.8798 27.6182 53557 1
30.1368 58.1745 27.2939 25023 2
30.7237 60.0699 29.8622 3012 1
35.131 57.8112 29.278 428 2
33.1059 58.2956 27.3129 41981 1
33.1708 59.8841 29.7643 24941 1
32.2314 60.7928 27.5198 1382 2
35.4068 60.3065 28.2733 24999 2
37.4467 57.8961 27.6136 1338 2
37.4767 59.052 30.6957 1385 2
38.62 60.5375 28.4451 24937 2
40.4501 58.0366 29.2492 429 2
41.4898 60.2445 28.6927 19607 1
43.2095 58.7294 29.1195 1387 1
42.8531 59.4008 26.6605 479 2
39.9691 58.9967 26.5204 41125 1
41.6617 61.6948 26.8777 25906 1
47.2699 57.5697 29.491 1393 1
45.2905 60.3946 28.599 1445 2
47.4731 59.802 29.7188 2294 1
48.0288 61.3884 27.9253 1444 1
47.9469 58.846 27.2206 1447 2
52.5125 60.834 26.9209 2342 1
50.3257 59.9977 28.1645 19569 2
51.5666 60.6518 30.4608 25035 1
52.3612 58.5841 28.8651 1398 2
49.7752 58.6584 30.5859 3201 2
49.1248 61.7303 30.5555 2387 2
53.4578 61.1871 29.3622 24996 1
54.6842 59.2519 27.5989 20473 2
55.8795 61.5319 29.465 25862 1
54.6781 61.861 27.3442 18770 1
55.4985 59.2472 30.5785 20470 2
57.6828 60.0673 28.0383 19618 2
59.5066 57.9013 30.0131 444 2
60.2949 60.164 29.0002 20476 1
59.8568 58.5621 26.9354 19575 2
62.1396 58.8464 27.9668 19572 1
64.4073 59.2207 28.7358 19520 1
63.8865 61.4465 26.9362 19580 2
62.6752 61.1116 29.6559 19623 2
65.7795 61.2618 29.8226 20528 2
62.7491 58.1684 30.6194 20428 2
66.1284 58.1709 30.4568 19578 2
67.0014 61.3696 26.9835 546 2
66.9045 58.754 27.87 1420 2
69.946 60.153 28.223 20487 2
68.0779 59.9226 30.0179 20483 1
72.9234 59.5969 28.1245 20485 2
74.451 58.2129 30.1839 20489 2
71.9165 61.5505 26.7955 19632 1
72.1548 61.6943 29.4737 21396 1
17.6754 62.3603 28.9558 55544 2
21.057 62.338 28.1377 63425 2
20.4763 65.7648 27.6689 54635 2
19.1048 63.5151 26.9188 53783 1
19.8186 64.3027 30.2319 63146 2
17.9603 65.1434 28.4345 55588 1
22.1647 62.4949 30.4819 63233 1
24.0708 62.598 28.23 54632 2
25.5706 65.1414 28.7019 63028 2
22.4179 64.6978 29.1135 48872 1
22.8106 64.5151 26.447 63600 2
29.207 62.0256 29.7942 48774 1
27.4703 62.5868 27.4333 63227 2
28.3275 65.2741 26.7906 5799 2
29.2184 64.8621 29.4549 63176 2
26.979 63.2506 29.9052 63043 1
31.0206 63.1508 28.0169 24954 2
31.0172 65.4646 26.4221 5309 2
34.114 62.4326 29.5185 3025 2
33.8237 63.8488 27.0315 19499 2
32.4415 64.8619 29.2662 2284 1
36.7515 61.8813 29.8369 20458 1
36.7995 62.6878 27.0223 2288 2
38.6863 65.3987 27.7377 2328 2
36.1289 64.6883 29.1248 3184 2
38.829 63.2456 30.1042 1384 2
39.6442 62.804 27.6196 2286 1
41.5508 63.2523 29.2818 1439 2
40.6906 65.5396 30.0475 2331 1
43.7829 62.9122 27.659 1391 1
41.8755 65.9984 28.0729 572 1
46.0597 62.2449 26.6254 1395 1
44.2925 62.9821 30.0852 1438 1
44.5808 65.4762 28.6428 1442 2
46.5467 63.3023 29.0419 1443 2
47.713 66.0514 29.1948 19614 2
47.5238 64.5828 26.4136 528 2
49.0176 63.6387 28.5248 25036 1
51.4798 62.9816 28.7983 19617 2
50.1399 65.7516 27.4639 1446 2
50.7129 65.9892 30.2982 2388 2
50.0462 62.3874 26.3627 19660 2
54.3273 63.7289 28.5018 19665 1
55.8662 65.4967 29.8891 2430 2
53.1057 66.2221 28.1078 2381 2
52.9412 64.8593 30.1607 1490 1
56.9726 63.2891 27.9148 20521 2
55.7547 65.8993 26.7576 583 2
60.6952 65.2371 27.9876 19670 2
58.4917 64.4251 29.4347 20522 1
59.8289 62.4748 27.8044 18729 2
61.5071 64.7765 30.6186 20566 2
63.744 64.1237 26.3737 1455 1
62.5163 63.3128 28.4579 25860 1
65.3559 63.4106 28.1158 19625 1
63.629 65.3038 28.5695 19624 1
64.2015 63.7521 30.6599 20575 2
66.5434 65.4702 29.388 21433 2
67.3872 63.8903 27.2225 602 1
68.1869 62.5613 29.1381 20533 1
70.4878 63.4568 28.0731 20527 2
68.898 64.764 30.0431 25854 1
69.929 66.0881 30.4224 23502 2
74.8594 65.7185 28.4962 22590 1
73.5989 63.3567 27.659 19679 2
72.1889 65.9663 28.6495 21693 2
71.2043 63.7623 30.6608 19639 1
73.8031 63.8312 30.5085 22549 2
17.7271 69.0363 29.9097 55780 1
18.9057 67.7786 28.1201 54678 1
21.1766 68.5529 27.3824 63142 1
20.861 67.429 30.1863 63177 2
18.4121 66.7965 30.1442 50692 1
19.9932 70.3607 29.4387 54810 2
18.9694 70.4197 26.7816 54856 2
23.4842 66.6089 29.93 55685 1
22.9976 66.8353 27.7078 63141 1
23.2645 69.3943 29.5835 54677 2
24.9948 67.7426 28.4489 63140 1
25.5919 70.0539 28.4406 63124 1
23.7417 69.3473 26.5296 48693 2
27.7098 67.4669 29.154 63144 2
26.758 68.8721 26.8119 55682 1
29.2553 67.7866 27.1245 1383 1
29.3704 70.06 28.3091 63139 2
27.2331 70.2803 30.4669 4452 2
31.0268 67.2037 29.2 63037 2
33.3373 66.3324 27.489 24853 1
31.7898 68.7134 26.9045 63014 2
34.2536 68.673 27.7239 48819 1
32.7364 69.52 29.7957 4408 2
34.2776 66.9397 29.8452 5806 2
38.0704 66.4749 30.1744 2332 1
35.7485 69.8155 29.378 3598 1
36.8819 67.8715 28.1849 2373 2
38.4662 69.9811 28.8127 2419 1
40.0411 67.9595 28.5945 1482 2
42.419 68.7605 27.8784 579 1
42.8694 67.3243 30.1969 2420 2
42.2854 69.8762 29.9309 1485 1
46.2001 66.7217 26.9642 525 1
44.8497 68.5848 28.4675 578 2
47.2781 69.3591 30.097 3294 2
47.7375 68.451 27.6912 1528 1
45.8323 67.2342 30.4619 25034 1
49.428 68.028 29.1116 2338 1
51.8511 68.3881 29.3477 2427 1
50.8869 68.6928 26.6932 1488 2
52.1292 70.5039 28.071 2431 1
55.947 69.608 26.3872 19662 1
53.758 68.4599 26.8912 19710 2
54.3069 69.9679 29.6641 1533 2
55.8891 67.947 28.2726 2425 1
53.9794 67.4138 30.301 2384 1
56.8414 68.5865 30.4947 2439 2
60.951 69.2117 27.6364 19718 2
60.1201 67.9422 29.8606 20569 1
58.3082 66.7551 28.2284 25882 2
57.9228 69.6213 27.8735 19667 2
61.5608 70.4331 30.497 20570 2
59.0925 70.2123 30.2098 25855 1
62.8737 66.9598 26.6521 18779 2
62.2698 67.2655 29.1529 20571 1
63.598 69.5431 26.6587 21779 1
65.2668 67.5993 27.948 20529 2
63.4971 69.2149 29.0449 21735 1
65.9989 68.7989 30.1745 19669 1
69.0064 66.2736 27.6276 18736 2
68.0388 68.8439 28.5487 22589 2
70.6246 68.1916 28.5337 25816 1
70.5918 70.1087 27.4248 18741 1
73.2637 68.7771 27.8236 2592 2
72.3536 68.005 30.1824 25853 1
73.983 69.6898 30.4959 21748 1
74.697 67.199 30.5902 22592 2
71.0814 67.7842 26.4139 2396 1
17.6621 71.5437 29.2796 63016 1
20.8872 72.6925 26.3816 54023 2
19.2989 73.4579 29.3242 54859 2
18.2173 74.381 26.9399 63363 2
22.0141 74.4206 28.2795 63116 2
21.7587 70.8566 27.7511 63128 1
22.1348 72.1874 30.4021 62901 2
24.1162 72.4928 27.2951 63118 2
24.9115 71.8821 29.946 63010 1
24.0037 74.2061 30.1619 4505 2
26.3914 73.6637 29.0784 48908 1
27.6152 74.5212 27.0109 3538 1
28.4424 72.4608 29.7596 4507 1
27.3109 71.7599 27.5942 63125 2
30.0977 73.0554 27.9276 3587 2
30.8883 71.7749 30.5375 3543 2
34.5347 71.3622 28.1219 21775 1
32.0839 71.1544 28.0522 4458 1
33.159 73.2965 29.5426 3599 2
32.8759 73.1425 26.8592 4512 1
34.7432 71.292 30.6847 3544 1
37.0164 71.4779 28.0354 3597 1
38.9557 72.7979 29.4265 4520 2
35.6813 73.8827 27.5665 3602 2
36.0834 73.2828 30.3809 23876 2
43.7284 70.9867 27.9691 530 1
42.7498 73.235 26.699 577 2
40.8005 71.1118 27.5521 2374 2
42.3034 72.7062 29.5227 1532 2
40.6039 74.0965 27.6647 19699 1
46.5867 70.6346 27.8551 3300 1
45.1466 71.4182 30.1106 1483 2
45.3354 73.2574 28.0276 1487 2
47.7984 72.5872 29.7322 2424 2
48.0568 72.7759 26.4028 633 2
45.9583 74.8471 30.0027 21842 1
49.65 70.8695 28.4885 2426 2
49.8974 73.6562 28.2463 21736 1
51.8874 72.59 29.3567 22630 1
51.8239 73.1978 26.4999 632 2
54.3332 71.5152 27.327 25821 2
53.5924 73.7894 28.2095 21526 1
55.5634 74.3571 29.4382 21729 1
56.688 71.9379 28.6182 21476 2
55.7077 74.0789 27.1098 12850 1
58.4394 74.6386 29.2121 20618 2
59.7864 71.9197 28.3206 20619 2
60.7099 74.0134 26.9383 21788 2
57.9549 73.4492 26.8221 25814 1
61.3969 73.5145 30.2447 21730 2
62.4677 71.4281 28.1572 25856 1
65.4697 70.9909 28.8085 20824 2
63.5633 73.8687 28.2555 22588 2
63.5743 71.8563 30.3364 25778 1
64.2566 74.2258 30.714 23542 1
70.0498 72.5542 26.513 22688 2
66.4287 72.7434 30.1913 22638 2
69.0888 71.679 29.559 21737 2
66.5695 73.6703 27.1133 21781 2
67.7961 71.2463 27.4825 21740 1
69.0337 74.5667 28.5781 21787 2
71.7065 70.6344 29.8846 22642 2
72.6136 71.4129 27.5184 21785 1
71.5691 73.4125 28.7813 25817 1
73.9182 73.5375 27.1431 20834 2
74.0356 72.4885 29.852 21791 2
74.2697 70.6621 26.3042 25851 1
21.0229 19.0659 33.8786 2716 2
18.2674 19.8121 32.525 59349 2
20.8349 20.4349 31.511 25064 1
23.3764 19.1052 31.9063 20009 2
24.9643 21.7967 31.8626 24990 2
24.168 20.2856 34.4951 3701 2
22.1444 21.942 33.354 1841 2
26.0807 18.5633 32.8077 784 2
26.7572 21.379 33.9632 2772 1
27.7482 20.7314 31.4076 2717 2
28.482 18.8679 33.7832 1847 2
28.9655 21.8701 33.3788 2776 1
30.5145 19.7841 31.9445 1891 2
32.7385 18.79 30.9148 23637 2
32.5905 19.1317 34.0853 987 1
33.3117 21.2604 32.7875 2775 2
31.0653 20.8878 34.8963 3653 2
35.9255 18.7605 30.9151 20120 1
38.6425 18.6758 31.7684 21910 2
36.1005 20.4396 33.0935 1900 2
38.843 19.6238 34.4356 3663 2
38.9972 21.7588 33.0315 3662 2
39.6999 20.9501 30.7832 3657 1
41.7811 20.085 32.3606 22582 2
41.4136 19.3992 34.9878 25771 1
41.2593 22.4106 34.1183 3717 1
44.0837 18.7315 34.8107 3667 2
44.6975 20.2024 32.8462 12875 1
46.2022 21.4551 34.5609 2791 2
47.1201 18.4856 34.9612 21060 2
47.8045 19.8196 32.2361 23264 2
46.0662 21.8665 31.4484 4627 2
48.8085 22.0458 34.3931 2736 2
50.1623 21.1614 32.2077 21895 1
51.5372 18.6577 32.3182 3670 2
50.0766 19.5708 34.19 22528 1
51.6395 21.6447 34.9597 22570 2
53.1722 19.6478 34.3163 21898 1
52.9832 21.4506 32.218 2785 2
55.5027 21.0133 31.3005 23127 1
55.5104 20.0658 33.6989 22564 2
54.4072 18.5641 31.2845 22533 2
57.3446 19.0907 31.0454 11602 2
57.9644 21.5141 32.1898 23632 1
58.2372 19.4301 34.0762 21893 2
59.8392 19.8091 31.7388 20993 1
60.4267 21.5076 33.6166 20141 2
61.1894 18.3084 33.3852 22527 2
57.5268 22.2836 34.3375 12459 1
63.56 18.4576 32.3376 12512 1
62.2378 20.6706 31.2164 38322 2
64.9305 20.1482 31.3701 12897 1
63.6692 20.5831 33.8303 25850 2
65.4122 18.6289 34.2253 31025 1
66.6089 21.1196 33.021 11550 2
69.1006 19.3506 32.3532 30802 2
70.1847 20.7951 34.2242 1659 1
73.8374 18.1487 32.9895 12895 2
71.6718 20.3757 31.8199 22613 2
74.2097 21.8422 33.1541 30808 2
72.4094 20.06 34.337 12506 1
74.9262 20.1012 34.9307 12412 1
19.4394 22.5012 33.0334 20051 2
19.1676 24.2602 31.0799 1930 1
20.6633 25.6998 32.0476 2818 1
19.682 25.2774 34.2623 2809 2
18.268 26.7247 31.7075 2763 2
21.9191 23.7533 31.2227 1886 2
24.7797 24.7953 31.6227 976 2
24.9943 23.411 34.4104 2770 2
22.6458 25.0754 33.8682 2820 2
27.9 25.2587 31.0112 1889 2
26.7818 25.4662 33.4302 21001 1