ITEM: TIMESTEP    
185000     
ITEM: NUMBER OF ATOMS  
77888     
ITEM: BOX BOUNDS pp pp pp
17.607 132.393    
18.0782 131.922    
28.3002 121.7    
ITEM: ATOMS x y z id type
19.9971 20.5274 29.1796 72779 2
19.211 19.6931 31.612 1881 2
19.6341 22.2163 31.6472 1887 1
21.7791 22.1479 30.0148 977 2
20.7461 20.6749 33.1843 25064 1
17.731 63.939 71.3636 13280 2
22.3457 19.159 30.9637 1839 2
25.2149 20.2137 31.9285 22628 1
24.2736 20.7507 29.777 926 1
23.1111 21.2319 32.259 1848 1
25.2942 18.5541 30.0673 23170 1
29.7113 19.7627 31.0151 20062 2
27.0746 21.0766 30.0474 1846 2
29.3569 22.335 29.8401 1895 1
27.7773 18.4925 29.3706 72824 1
27.4376 18.252 31.829 1845 2
29.3332 20.5333 28.3391 23160 1
33.9577 20.1394 30.8499 43709 1
34.2887 21.6365 28.9501 19151 1
34.4981 18.7191 28.7437 24988 2
31.8843 21.0238 31.6882 25026 1
32.0471 20.3491 29.0959 25063 2
34.2678 21.3764 32.7595 2726 1
32.7776 18.9008 32.9814 23637 2
59.8749 44.3968 28.2979 43957 2
36.676 20.1463 29.8757 1851 2
39.3346 21.3909 29.8816 22537 2
37.2924 22.1836 31.9267 1899 2
37.8588 18.2906 31.4595 22536 2
35.9228 19.8228 32.1773 20120 1
39.4245 18.7791 29.7441 1904 1
40.8862 19.4703 31.7671 1854 2
43.8096 18.541 32.2013 23128 2
42.9623 20.481 30.3343 21871 1
42.3811 21.6158 32.3706 3665 1
39.8965 21.7483 32.5554 3657 1
48.7328 18.5168 73.2377 16028 2
45.1303 19.3235 29.4774 1099 2
47.3941 20.7008 30.0924 40834 2
47.1202 18.343 31.7811 22576 2
45.2946 21.0357 32.3706 4627 2
44.9776 22.4919 29.9891 43705 2
47.9201 21.8527 32.4611 1908 1
50.4995 19.0605 29.8592 38521 2
49.8942 21.3634 28.9891 40893 1
49.5618 19.7877 32.2586 22529 2
52.5687 21.1691 29.5596 38365 2
52.7758 20.1862 32.0461 22574 1
55.7973 19.1104 29.3138 21944 1
55.1182 20.5919 30.9052 12513 1
55.158 21.7851 28.6628 39988 2
56.79 22.0217 31.7586 13500 1
56.9569 19.4302 32.7726 11602 2
60.1668 22.3244 29.3395 31298 2
60.2166 18.6687 31.4776 19184 2
59.67 22.1187 31.8502 31285 2
60.2977 19.3406 29.1722 31004 1
58.0035 20.3912 29.9511 38509 2
62.034 20.6604 30.2249 31021 1
64.3135 21.5417 31.3183 21892 2
63.9544 19.554 29.2217 30371 1
63.9187 18.3918 31.7019 30999 2
63.0365 22.6209 28.7209 30803 1
66.3381 19.0233 29.7304 31023 2
74.9503 30.7291 30.6027 43989 1
67.5132 21.4684 30.2268 31293 1
69.1028 19.7537 30.0523 30997 1
70.1707 18.5414 31.8567 38366 1
66.2412 20.2092 32.3473 20998 1
67.8346 18.6214 31.7357 30809 1
69.8489 22.279 29.3242 31019 2
69.0746 21.247 32.355 19245 2
50.3543 68.3031 28.5373 1488 2
74.2617 19.8013 30.1183 31289 2
71.4386 20.7879 30.7834 30996 2
72.8095 18.4393 31.8128 21403 2
43.0927 21.4127 28.1472 43668 1
73.1612 21.7084 32.2204 12413 2
71.4176 71.9687 70.6551 14222 1
18.4993 23.342 29.3504 1928 2
20.5344 24.8453 30.6549 1885 2
18.0087 26.0254 28.6053 72780 2
19.3007 24.1548 33.0088 1930 1
21.7782 23.2843 32.8628 1886 2
24.7009 23.1029 30.8133 25024 2
22.9558 24.3314 29.2492 25062 1
23.204 25.1984 31.6905 1888 1
25.7473 25.2628 31.4699 1945 1
22.8815 26.7072 29.9732 52493 1
25.2955 26.4324 29.2739 25061 2
26.999 22.9601 31.993 1884 1
27.5378 24.3043 29.7566 1943 2
30.288 25.137 31.3008 40920 2
27.9771 25.177 32.8676 1889 2
29.72 22.5077 32.5248 1944 2
31.7429 23.3423 30.3866 989 2
33.3541 25.4225 32.1334 1035 2
32.1937 26.4101 29.5851 43811 2
34.6821 23.0643 30.9657 25027 2
32.4725 23.2075 33.0296 25060 1
34.9905 25.0515 29.3674 40922 1
36.5613 25.2987 31.7811 2729 2
37.0091 23.3128 29.0053 40928 2
37.6232 25.9858 29.3581 43667 2
39.3449 24.2399 31.213 3770 2
41.6815 22.9897 30.3224 40934 2
41.0027 25.713 29.7571 1956 1
41.9302 25.4371 31.8931 2782 1
43.3296 24.8557 29.7626 41801 1
43.693 23.7106 32.0014 22532 1
39.4658 24.2503 28.3688 2790 1
46.2618 25.1916 29.4321 40939 2
47.5605 25.4962 31.9284 1153 1
44.9359 26.1528 31.5987 2837 2
46.1531 23.7315 31.9737 21900 1
48.9372 23.7122 30.5303 40989 2
50.8176 21.925 31.5401 1110 2
51.8237 23.6165 29.3311 19180 2
50.6082 26.1854 30.7134 2020 2
71.1886 18.2888 29.0623 30343 2
50.1299 18.332 67.2317 16332 2
54.0913 23.1107 31.413 23176 2
53.3086 25.8634 30.774 23642 1
54.8869 24.7078 29.1278 40025 2
55.5992 25.2575 31.4471 40030 1
57.2162 23.4434 29.5043 38629 2
57.7288 24.1167 32.0087 23172 1
57.7294 26.3799 29.9684 18330 2
59.6964 24.6114 30.5903 20148 1
61.1587 26.455 29.4481 199 2
61.9485 25.9718 32.737 713 2
61.7461 23.0434 32.9795 20104 1
62.2813 23.9179 30.6959 19285 2
64.8442 23.8186 30.1116 18327 1
63.8967 26.6994 30.2162 19229 2
64.5397 24.8321 32.4772 20106 2
66.4178 25.7781 30.8137 19241 1
68.8388 24.5792 31.2887 1065 2
67.3195 24.1151 29.2164 31294 2
70.3958 24.9055 28.4785 44061 2
66.7342 23.0118 32.1523 31002 2
73.2754 25.3811 28.9908 44079 1
72.1615 23.3631 29.9613 12457 1
71.3346 25.7436 30.766 30290 1
73.4663 24.5966 31.2215 43162 1
74.6756 22.5578 29.6249 39972 2
70.9816 23.4126 32.5358 22672 2
20.7025 26.651 28.85 970 1
19.1697 26.8305 30.9141 63548 1
19.3093 28.919 29.2276 1933 2
21.4832 30.8051 30.9363 1071 2
18.7412 29.3218 31.9633 1936 2
21.546 27.9495 31.6732 63546 2
22.0699 28.8734 28.5623 975 2
24.359 27.1132 32.0484 63545 1
24.0479 29.2489 30.2333 1023 2
26.5801 30.2475 31.3638 40916 1
26.6405 27.7606 32.0941 1025 2
26.468 28.6841 29.3908 986 1
28.3842 27.1045 30.1673 39954 2
28.6125 29.7127 30.0925 19240 1
30.5502 28.3865 30.4391 983 1
29.8243 27.1503 32.5603 1949 1
30.8184 31.1068 30.9677 1940 2
28.978 29.6625 32.5313 1947 2
32.9204 29.3559 29.6195 41885 2
32.1187 28.0943 32.4096 41845 2
33.1812 30.6085 32.2093 1033 1
34.9236 27.3909 30.4738 40926 2
39.5544 26.9322 31.6052 1958 2
35.5039 30.1049 31.1446 41893 2
37.4402 28.4416 30.0856 2779 1
38.1905 30.5253 31.144 2010 1
36.8449 28.0871 32.3237 1083 1
38.5564 30.144 28.7337 1907 2
35.7129 29.3127 28.6542 2000 1
39.7635 27.9933 29.378 2836 1
42.5931 27.5236 30.1489 41842 2
43.2603 30.5476 30.671 43703 2
40.6441 29.7218 30.9399 40975 2
42.1886 27.9474 33.0616 2069 2
44.0481 74.5092 67.1228 12438 2
45.1284 27.9542 29.7808 40985 1
46.4044 30.1295 29.6943 41032 2
47.9292 27.7066 30.5522 40935 2
44.5559 29.1661 32.3564 41849 2
47.5554 30.3218 32.2969 2072 2
49.165 29.9199 30.1986 1954 1
50.5185 28.3131 29.068 42717 1
50.4334 28.7028 31.6363 2027 1
51.5817 30.788 30.0074 1163 2
52.4064 28.2772 30.4759 40996 1
53.1095 28.8764 28.3242 1105 1
52.1727 27.2432 32.712 2026 1
52.6192 29.9367 32.6857 1164 2
54.6887 27.7745 31.6997 20144 2
54.8258 30.0656 30.2314 248 2
55.2782 27.4014 28.7035 19382 2
57.319 29.1922 28.5781 19227 1
57.544 28.9954 31.205 19231 2
59.7052 28.7609 29.712 246 1
60.0237 30.4828 31.4837 200 2
58.9391 30.9628 29.2991 1109 1
59.707 27.0673 32.003 19234 2
61.7704 30.1091 29.07 2792 2
66.063 27.1221 28.5685 18337 1
62.087 28.4652 31.1165 19243 1
64.4545 29.5023 29.3028 19242 2
63.2939 30.779 31.4613 20214 2
64.2125 28.1284 32.7054 20151 2
66.7101 28.284 31.257 12515 2
68.7568 26.9267 29.3461 30998 2
69.7177 27.5837 31.8287 19186 2
67.305 29.6633 29.0906 30833 2
69.8765 29.5556 30.0521 43818 1
68.6463 30.4962 32.0422 20158 2
74.4181 27.7873 30.2515 30993 2
72.5671 29.8312 30.4536 43804 1
71.4187 27.7462 29.2574 18339 2
72.4157 27.6531 31.9932 18336 1
74.2734 72.9561 73.0495 25193 2
71.3914 29.8499 32.511 19294 1
18.3736 34.9084 30.105 1017 2
21.2863 33.551 29.9529 1060 2
18.6034 31.6037 30.206 63536 2
19.9924 33.2352 32.3642 1934 2
71.257 73.5265 73.1035 15179 2
27.9988 52.4512 28.3251 50477 1
74.7083 62.1721 34.3536 20536 1
24.302 31.8717 31.7175 63681 2
24.0606 34.1801 30.3513 43702 1
22.7484 34.3798 32.253 1069 1
23.5473 31.8334 28.9067 72814 2
26.2893 33.3578 30.8009 1070 1
25.205 34.2656 32.7106 1983 1
26.37 31.3453 29.0885 40917 2
28.1999 32.0365 30.9576 40965 1
28.3023 34.2726 29.328 1031 2
30.0431 33.7722 31.4372 2916 1
29.155 31.8444 28.7498 979 1
27.8445 34.3485 32.4062 1989 1
34.838 34.1621 30.9477 24974 2
33.3973 31.9346 30.4459 984 1
31.7162 34.2897 29.888 1029 2
32.3691 33.3336 32.6759 1950 2
34.9351 32.2095 32.7891 21059 1
51.3595 45.6036 28.377 2120 1
36.0916 32.062 28.9217 1077 2
38.9409 33.0319 29.72 1199 2
36.7741 32.5155 31.3434 1080 1
37.7187 34.9644 31.5667 20283 2
36.6094 35.1622 29.1079 41937 2
39.533 32.3904 32.5794 41895 2
40.9073 31.529 29.1085 42701 1
41.92 33.2384 31.0971 2004 2
43.4706 32.5115 29.0219 41848 2
40.261 35.2789 30.355 2002 1
43.5798 31.7274 33.1589 3713 1
44.5977 34.8303 29.9748 2990 2
48.131 31.8598 30.4611 2942 1
47.3506 34.4793 30.2725 2067 2
45.525 32.3771 31.5483 43700 2
48.0184 32.9352 32.59 2023 1
74.8022 25.4942 70.3467 28710 2
46.5202 34.8498 32.6141 1209 1
50.027 33.3928 30.4629 237 2
52.1138 32.4636 32.2735 2902 1
51.8157 33.1702 28.7872 291 1
52.3873 35.111 31.5361 2022 2
50.0082 31.3732 32.3903 42715 1
49.0186 35.0744 32.0009 236 1
56.0872 34.4382 29.4191 19334 1
53.863 32.8557 30.1879 20251 2
55.4797 33.9117 31.62 1208 1
57.2185 31.8949 31.2144 2077 2
54.7128 31.6211 32.374 249 1
58.8367 33.5642 28.8371 241 2
59.433 32.9284 31.5112 19233 1
57.7033 34.5904 31.191 19235 1
61.5896 32.795 29.9458 1112 2
60.2867 35.4301 30.8943 2121 2
61.8819 32.9969 32.6669 20212 2
62.9947 35.3571 30.8211 43165 1
63.9134 31.8062 28.8697 18380 1
63.9659 33.3271 30.9657 19341 1
64.7357 34.524 28.8008 19232 2
66.0029 31.7594 30.8127 19289 2
66.0799 34.8198 31.8161 20256 2
68.6478 31.7671 29.6744 20162 1
69.6244 34.0408 29.3558 19293 1
67.1646 33.9294 29.262 20215 1
68.3719 33.0115 31.463 19347 1
40.8057 74.7592 69.6665 13352 1
73.5977 32.387 29.1767 19297 1
71.1303 32.0323 30.7727 19246 2
71.7148 33.5209 28.8193 18438 1
71.0545 34.3803 31.8509 19295 2
74.22 33.0859 31.6818 19301 2
73.2728 35.2782 29.9881 43988 2
20.5995 35.6626 31.5586 63543 1
51.3675 35.7428 28.4376 1155 2
19.5075 37.284 30.1019 63542 1
18.4397 39.1218 31.6731 63318 1
20.8919 38.3686 32.1503 1979 2
20.3441 18.2185 44.7104 4553 2
22.1638 39.1395 29.8428 2045 1
22.3333 36.5497 30.0808 1988 2
24.7473 38.8616 30.2446 2036 2
26.0857 36.0757 31.0408 1075 2
24.5316 36.561 28.8317 2034 1
23.3876 37.0092 32.3163 1981 2
65.491 21.6462 28.4238 30838 2
29.394 36.4374 30.9439 1074 2
27.1849 37.2888 28.9062 41015 2
29.706 39.2379 30.0512 1028 2
27.434 38.6405 31.9362 1122 2
33.9036 39.005 29.4554 2829 2
31.885 37.6797 29.9296 1079 1
33.8531 36.0683 29.474 41936 1
32.5535 36.2443 31.9079 1997 2
30.7395 38.5387 32.3069 2870 2
33.3686 39.1134 32.229 20156 2
74.753 73.7677 64.352 9898 1
35.4901 37.1818 31.3227 1995 2
38.505 37.2676 29.7422 41068 2
37.3629 39.0387 31.588 2061 2
36.7889 39.7787 29.1815 41072 2
39.9344 37.7831 32.025 41994 2
42.4898 35.911 28.9368 41024 2
42.3909 36.0859 31.6241 2944 1
40.9844 38.1875 29.552 40988 1
42.8108 38.1869 30.9505 2066 1
43.3434 39.0373 28.6051 1204 2
45.1607 37.3587 29.2357 1159 1
45.4713 39.4396 30.1191 41031 1
47.6357 37.258 30.0056 330 2
45.1315 36.9846 31.8471 2995 2
47.0884 39.0928 32.0593 25017 1
44.4935 39.5131 32.215 2111 1
50.0837 36.4649 30.7031 41035 1
17.7455 67.0041 46.8665 62713 2
51.9974 38.2042 30.9374 1162 2
49.3784 38.4911 31.6269 1213 1
50.2425 38.3908 28.6579 40108 2
53.3709 39.2134 28.9602 18473 2
55.9578 38.2879 29.2486 41085 1
55.1873 36.5898 31.4062 20297 2
54.7757 39.2706 31.5703 388 1
53.8143 36.0882 29.3037 44000 2
57.3306 39.0084 31.4623 18430 2
58.0495 36.5732 29.4428 288 2
59.5951 38.0308 30.9952 18376 1
58.5939 39.7363 28.8193 19282 2
58.398 36.7519 32.2655 19276 1
61.416 38.5762 29.2586 18381 2
62.1012 37.7261 31.7571 19286 2
63.876 37.0087 29.3579 1119 1
64.645 37.0595 31.8654 20213 1
64.4092 38.9185 30.5805 44031 1
65.9514 39.6888 32.5963 20260 1
41.5133 29.2196 28.4803 1897 1
68.442 35.5047 30.7468 19339 1
66.5004 37.1408 29.6412 19281 2
68.749 38.3619 30.2144 19290 1
68.3805 39.5578 32.1648 163 1
66.968 37.548 32.0844 20208 1
69.4893 36.9983 32.7037 19291 2
70.5685 36.4773 29.3645 19349 2
70.822 38.854 28.9199 18383 1
71.1214 39.0581 31.6682 18437 2
71.9846 36.7945 31.7572 25899 1
74.019 38.756 31.9883 19352 2
73.1366 37.837 29.7448 18386 1
71.6544 71.5311 74.4586 26052 1
19.6937 39.7824 29.7645 63529 1
18.6482 41.5336 31.2757 63648 1
19.6308 42.2027 29.1795 63678 1
20.7504 43.6987 31.4109 63528 2
21.3607 41.1995 30.5196 21093 1
17.6943 60.5909 55.3064 11420 1
20.4529 41.3471 33.3157 2911 2
22.8915 40.151 31.9653 2039 1
23.7519 41.4175 29.3772 41066 2
23.1178 43.3378 31.3292 63091 2
25.4142 41.2471 31.6203 2037 2
25.5804 43.7489 30.9079 2969 1
25.9603 43.309 33.0719 2974 1
26.8302 39.9232 28.8718 41016 2
27.8903 41.5791 30.6748 43701 2
28.4372 43.6628 29.008 42710 1
29.848 41.217 32.256 25055 2
27.9961 44.1621 31.7166 2971 2
30.3136 42.1061 28.577 41883 2
31.0044 43.7305 30.9064 2090 2
33.2901 42.3273 29.2044 1998 2
31.8648 40.7811 30.6824 41941 1
32.5965 42.082 32.3777 1994 1
34.8677 43.3062 32.7858 41940 1
50.204 74.7466 63.5048 10763 2
37.1656 41.9441 30.8901 1202 1
34.8848 41.1214 31.2959 2053 2
36.0291 42.4072 28.7205 2056 1
39.0156 43.4534 29.8913 3133 2
36.4976 44.3674 30.1149 41939 2
39.1341 41.5239 32.4413 2926 2
39.1297 74.9066 57.8462 24480 1
39.6094 40.2583 29.9789 41984 2
41.8565 41.6779 29.1291 1200 1
41.5476 43.0404 31.3079 1198 2
43.7109 41.0337 30.4802 25047 1
44.011 43.6273 30.0752 1251 2
41.7629 40.0628 32.1007 3037 2
45.21 41.2864 28.7041 25049 1
46.8685 42.8825 29.4708 1254 2
46.2061 41.8509 31.8195 25018 2
48.3709 40.4598 29.9996 2119 2
48.3205 41.6363 33.0392 1206 2
50.9344 40.9362 29.2377 290 1
49.3165 42.69 30.6215 2113 1
51.6999 43.2876 30.273 289 2
50.8579 40.8138 31.7744 2074 2
50.4327 43.6155 33.096 2163 2
53.1334 43.1301 32.6868 2116 2
53.3412 41.0708 30.9164 20299 1
55.7166 40.9114 29.516 18427 2
54.5341 43.162 30.3256 39218 1
57.4373 43.6301 30.3508 19337 2
55.6053 44.2921 32.142 24949 1
55.7231 41.6177 32.5292 2167 2
53.1761 40.5104 33.022 20296 1
58.0818 41.3013 30.8243 18378 1
60.475 40.5129 31.4709 20206 2
59.8947 42.8329 30.2646 1255 1
61.7153 43.1781 32.4746 20298 2
62.8879 40.5759 30.3901 18379 1
62.3266 42.9934 29.8765 18479 1
64.5423 42.3749 31.5074 19338 2
64.3256 42.0143 28.6085 19387 2
64.1282 44.4012 29.6009 18435 1
63.2871 40.268 32.7742 19378 2
69.0702 43.0063 28.3985 18436 2
66.5561 40.2512 29.9839 18433 2
66.5655 43.0649 30.0123 19384 1
69.5853 40.983 30.0191 18439 2
67.674 42.0941 32.1157 20305 2
70.6486 43.055 31.2089 19389 1
74.6381 41.728 31.2787 20361 2
72.6558 40.2354 29.6542 18443 1
72.1407 41.2497 31.7386 20353 1
72.3218 42.8288 29.2077 19401 2
18.4055 44.5285 29.9878 63282 2
18.9561 47.4525 30.9135 63280 1
21.2265 46.3894 30.0466 53468 2
19.6116 45.8319 32.4905 48662 1
21.1381 48.8861 31.2366 48858 2
22.9046 64.5573 28.4246 63600 2
23.9821 45.3177 29.5001 63650 2
23.5276 47.6293 30.3441 2088 1
25.3829 46.1092 31.9729 2044 2
22.3872 46.185 32.3564 63083 2
24.2233 48.7082 32.7587 2963 2
26.8121 45.8693 29.0794 41064 2
29.2862 45.7835 29.6405 2049 1
27.9103 47.079 31.388 1131 1
28.5481 48.1671 29.1875 41062 1
30.075 45.782 31.9483 2046 1
30.7915 47.9102 30.7172 41946 2
34.0608 44.5042 30.7395 2051 2
31.8934 45.7538 29.0498 2157 2
33.5588 47.456 30.9843 2095 2
32.1729 45.8154 32.2261 2979 1
32.4586 48.4388 28.62 2092 1
28.3196 74.8793 31.1937 22518 2
39.7795 45.2842 31.5817 2156 1
39.2197 46.4311 29.2452 41124 2
35.7342 46.9883 29.9831 41990 1
37.4849 46.9147 31.7743 2159 2
37.6036 48.6844 28.9375 2155 1
41.7459 45.5794 30.2438 1249 1
40.9604 47.3369 31.8666 1292 1
43.7874 46.3465 30.9338 2162 1
41.9001 48.0608 29.4952 1293 2
43.3401 48.3895 32.346 25009 2
43.2688 45.65 28.5069 1257 1
47.6989 44.7124 32.0395 1253 2
44.7863 48.1742 29.2154 2169 2
45.8353 45.7036 30.0431 381 1
45.7344 47.3315 31.78 21219 1
47.7603 47.1446 30.685 385 1
45.1484 44.7957 32.4965 19458 2
49.873 47.7368 28.8548 1305 2
48.8278 44.9385 29.2656 340 2
51.994 48.1882 31.0334 1345 1
50.3285 45.835 31.1788 2208 2
49.6186 48.0527 32.3622 2248 2
53.3314 45.5798 31.2242 25040 2
53.3039 46.9661 28.6444 1298 2
55.7923 45.9722 29.8843 1306 2
56.8225 47.8875 31.6062 21280 2
53.9365 47.9864 32.569 3089 1
72.1215 18.1926 45.7611 10538 2
57.6311 45.2696 32.6715 1262 1
59.7521 44.5835 31.8092 25046 1
58.7269 46.2725 30.213 1303 2
61.2647 48.4182 30.2126 2172 2
61.765 45.379 30.4937 20338 2
59.8715 47.2958 32.7176 19429 2
17.5651 64.3862 46.5234 56547 1
62.8207 47.7254 32.0891 259 1
63.9804 45.2265 31.9139 20304 1
64.115 46.9934 29.6919 19386 2
65.5619 47.2692 31.8851 25875 1
68.5239 44.3044 30.766 19396 1
66.4471 45.7283 30.0804 21192 2
68.3792 46.9543 31.7395 19439 2
69.0438 48.2707 29.2955 18476 2
66.4528 48.4686 30.1959 25042 1
66.4645 44.6282 32.8724 21284 2
73.0389 44.2131 31.0587 2141 1
70.6988 45.6322 30.2021 19436 2
73.1238 45.5426 28.4521 18542 1
74.271 46.6151 30.4653 20313 2
71.7354 48.2297 31.0231 2268 2
70.5994 18.1205 41.6522 11592 1
18.0053 50.5822 31.9201 63275 2
19.1828 49.5823 29.6896 63274 2
20.1445 52.1525 31.0855 63060 2
17.7982 52.1506 29.7689 54461 1
25.9824 48.6016 30.5866 63281 2
23.5361 49.9258 29.9949 63527 1
25.4738 51.4094 28.9335 2085 2
22.3532 51.6573 29.4623 63486 1
25.0239 51.9213 31.572 63483 2
22.4802 51.3254 32.26 63234 2
43.7447 74.9851 73.5697 13401 2
28.2001 50.5736 30.3293 24951 2
29.7424 52.6019 30.0822 2040 1
30.5598 50.6378 31.4047 40237 1
26.4587 50.2565 32.6285 2091 1
29.1327 48.8356 32.8067 2978 2
30.3673 50.4001 28.3993 41110 2
32.6332 50.1182 30.0767 41115 1
34.5593 50.1501 31.4001 41120 1
32.4568 52.5764 30.1909 2048 2
35.0201 49.2606 28.6563 41077 2
32.2114 49.3968 32.8718 3028 2
38.7435 50.9996 29.2333 378 2
36.7524 49.5466 31.0979 63642 1
38.0366 51.6595 32.2957 2199 2
35.939 52.0021 30.1379 41170 2
39.3409 49.0815 30.7929 1294 2
40.4699 51.2318 31.4819 1336 1
42.5883 50.261 29.9949 2200 2
42.9568 51.33 32.5976 2242 2
44.1932 52.7929 29.9589 383 2
47.2613 49.0577 32.034 2214 1
47.6142 49.5954 29.3462 41079 2
45.3242 50.3183 31.3337 1295 2
46.7252 52.3007 30.0865 394 1
48.0829 51.5386 32.2098 25836 2
49.0131 52.7293 28.8436 3092 2
50.0692 50.3263 30.4047 2213 2
52.2043 49.7828 28.5503 25001 2
51.4148 52.9504 30.7066 4065 2
52.4627 50.5434 31.4725 1301 1
17.6423 31.6101 67.693 62208 2
54.5386 49.1561 30.3577 19428 2
53.8192 52.0441 29.7076 25885 2
56.4319 51.0767 31.0583 25890 2
56.2103 52.9011 28.7267 19473 1
58.5574 48.8388 29.7439 19470 1
59.4529 50.8894 30.2719 3150 1
58.7669 49.3301 31.9948 1310 1
58.2674 52.8271 30.0708 1267 1
61.3426 50.4133 32.3511 20342 2
60.6538 53.0526 30.9559 19379 1
58.7968 52.0107 32.6841 20437 2
62.3385 51.3292 29.7006 19483 2
64.0753 49.7172 30.9661 18534 2
65.7139 51.4688 30.1344 20397 1
63.6101 52.6932 31.5399 20392 2
65.9535 52.3334 32.3504 20343 1
57.0573 74.8822 46.3201 24486 2
68.112 50.7153 30.2937 19482 2
69.5115 49.5596 31.9465 1224 1
69.9492 52.5656 29.1851 19488 2
68.3979 53.0359 31.8885 20391 2
67.3589 52.6918 28.916 313 1
66.9809 49.8365 32.6116 20351 2
74.7191 49.3834 31.8234 25005 2
71.2223 50.2128 29.2942 20352 1
73.6831 50.8752 29.4539 19532 2
71.2363 51.6014 31.401 20394 2
18.8036 54.4726 29.584 63500 2
21.4591 54.4455 29.1194 63481 2
19.9938 55.3598 32.0005 63223 2
20.7285 57.2277 29.6258 48680 2
22.2238 53.8578 31.4302 63046 1
22.3404 56.5864 31.4432 63485 1
24.014 53.6214 29.8347 63235 1
23.7044 56.4382 29.1732 63634 2
24.4915 55.3987 31.8893 63188 2
74.686 65.0763 34.3182 20577 2
26.4756 56.6077 30.284 63479 2
27.3246 53.5994 30.5591 2089 2
29.2129 56.6759 30.8541 3022 1
29.3677 54.9113 28.9115 40191 2
30.1952 54.443 31.733 40239 2
27.41 55.7095 32.7749 2195 2
32.1292 55.5192 29.4097 42703 2
34.4178 54.2329 30.5319 41977 1
34.7642 56.7691 31.6064 428 2
32.8702 54.8847 32.0005 2980 1
53.2975 44.2999 28.4305 1307 1
31.585 57.4342 31.8043 2982 2
36.7021 55.1313 30.2689 477 1
38.4559 55.9047 32.2255 3191 2
38.4227 53.5546 30.2281 19545 1
39.3334 55.8924 28.9129 1343 2
36.4119 54.0761 32.5753 376 2
41.135 52.9777 29.831 1339 2
39.8317 53.7869 32.053 2201 1
40.9127 55.5557 30.7132 481 1
43.101 55.0363 29.8501 1386 1
42.6473 53.9759 32.2734 1388 2
46.1953 54.5873 30.0516 2240 1
47.8296 55.6199 28.4269 1348 2
44.8323 55.5082 31.5038 1347 1
46.9187 56.6958 30.8412 1393 1
48.4681 54.294 31.3035 1297 2
44.7715 57.1962 29.51 1390 2
45.6609 53.1474 32.5698 1389 2
50.2107 54.9879 29.3792 19565 1
49.6776 57.0783 30.6949 20463 2
51.6873 56.8405 28.7568 1399 1
52.426 55.642 31.1686 1397 2
52.5355 54.5758 28.9102 1352 1
50.3577 55.5849 32.7224 2292 1
54.2159 53.0386 31.9524 20340 2
54.7386 54.5643 29.8977 19469 1
54.5031 56.6818 28.3247 20435 2
55.0213 56.7783 30.9236 19657 1
56.7051 54.3577 31.6842 25867 2
56.8629 55.2415 29.1257 19517 1
59.4228 55.2441 29.8838 25887 2
61.7123 55.2114 32.0767 19430 2
61.7802 56.9763 29.7665 25865 1
62.6501 54.4604 29.6133 19476 2
64.4099 57.0621 29.747 19570 2
64.4248 55.8312 32.2298 19478 2
65.7353 54.3444 30.5289 19486 2
66.9759 56.6469 29.5316 19585 1
68.4078 54.7819 29.7197 19523 1
67.3631 55.9584 31.7671 20445 1
69.3099 55.3145 32.9756 25888 1
74.8836 53.3967 30.7423 19530 2
72.4444 53.2696 29.8536 20402 1
70.6865 55.162 30.7656 19524 2
73.4401 55.9907 29.5884 20444 2
74.5751 55.4929 31.9429 20446 1
72.7804 53.9643 32.3004 20447 1
72.1041 56.491 32.3724 19588 2
18.2604 57.604 29.3631 63187 2
18.9364 59.9885 30.5058 63040 1
18.9447 58.0206 31.9955 63185 1
21.4423 59.5562 31.2495 63183 2
20.4992 59.5091 28.7693 63438 1
19.3009 61.1459 32.8631 55451 2
31.7662 31.8968 28.4581 41022 1
23.736 59.1053 30.2364 63433 2
25.8834 58.3627 31.9922 53648 2
26.2393 60.7874 30.6312 63042 1
24.0752 60.5427 32.4949 63186 1
25.9729 58.7474 28.9666 63410 1
23.3652 57.9597 32.9211 63225 1
28.3256 59.131 30.5047 63272 2
29.697 60.8021 29.2736 53557 1
30.7195 58.2138 29.0353 25023 2
28.7606 61.6677 31.2965 48774 1
30.7281 60.0401 31.2856 3012 1
33.627 57.9091 29.5169 41981 1
33.2836 59.187 31.5892 24941 1
32.6642 60.1441 29.2991 1382 2
33.2039 61.8868 31.8163 3025 2
37.1146 57.7709 29.978 1338 2
35.3988 60.0973 30.4368 24999 2
38.5388 60.624 30.4337 24937 2
37.0602 61.1452 32.4634 2330 1
39.3062 58.5243 28.438 41125 1
37.214 58.6536 32.8866 1385 2
42.7852 56.9947 31.91 2289 2
41.8661 57.5582 28.9745 435 2
39.9435 58.049 31.1059 429 2
42.8586 59.2923 30.6194 1387 1
41.1845 60.3145 28.8029 479 2
40.9989 60.5876 31.5667 19607 1
43.2619 60.6155 32.9551 1441 2
45.3294 60.218 30.9151 1445 2
47.4507 58.807 31.7343 2294 1
47.3246 58.5434 29.048 1447 2
47.0336 61.3942 28.4039 1395 1
45.0377 57.9406 32.8511 20511 2
48.163 60.6616 30.5014 1444 1
52.2214 61.1501 29.1513 2342 1
50.2979 59.3258 29.2291 19569 2
52.7103 58.5967 30.5814 1398 2
50.8595 61.1886 31.1358 25035 1
49.9266 59.1551 32.3191 3201 2
57.4325 57.4875 30.4228 448 2
53.5251 61.151 31.1733 24996 1
55.2386 59.3065 29.817 20473 2
55.8229 61.3967 31.3395 25862 1
54.8412 58.8769 32.7105 20470 2
59.7505 57.4947 31.5737 444 2
59.7648 58.2718 28.4865 19575 2
58.2344 60.3165 29.4016 19618 2
60.3453 60.0564 30.5373 20476 1
57.6848 59.921 32.0739 20477 2
60.2612 59.8095 32.7909 20480 1
62.3334 59.3195 29.753 19572 1
64.536 60.1101 30.9117 19520 1
62.2383 61.5196 31.5197 19623 2
62.7399 58.3156 32.021 20428 2
66.4043 58.204 31.648 19578 2
69.3578 57.6349 31.3731 19626 2
67.9693 59.0056 29.2688 1420 2
69.6761 60.5125 30.5069 20487 2
67.414 60.6173 31.843 20483 1
66.7036 61.6298 29.5305 546 2
69.0253 59.5631 33.2681 2357 1
71.4843 57.9827 30.0795 20488 1
74.3299 61.0318 31.7439 20497 2
72.525 60.0909 29.327 20485 2
74.1994 58.1108 30.9673 20489 2
71.6753 59.4622 32.3545 20537 2
17.8012 65.0915 30.1434 55588 1
20.6715 62.2415 30.0512 63425 2
20.2105 65.4029 29.6105 54635 2
19.8157 64.0552 32.2534 63146 2
22.239 61.9729 32.2385 63233 1
22.0114 65.2376 33.0694 63027 1
18.7522 63.5312 28.5483 53783 1
24.1453 62.1833 30.1651 54632 2
25.3853 64.7036 30.2175 63028 2
22.3466 64.2675 30.9409 48872 1
26.5662 65.1013 32.7381 63024 1
24.2724 63.2743 32.8352 63036 2
26.6295 63.054 31.6371 63043 1
27.5674 62.5566 29.0495 63227 2
29.2358 64.3917 31.217 63176 2
27.8667 65.656 28.904 5799 2
31.0226 62.4301 32.8269 22153 2
30.8235 65.6319 28.8638 5309 2
31.0597 62.8757 29.5946 24954 2
33.7802 63.0886 29.5164 19499 2
32.2125 64.5847 31.2787 2284 1
33.3393 65.6232 29.3362 24853 1
34.2947 64.472 32.1622 3948 1
35.6589 62.5933 31.2966 20458 1
36.9977 62.5593 28.9703 2288 2
39.0548 64.8417 29.1817 2328 2
35.9013 65.241 30.0023 3184 2
38.1286 63.5231 31.7471 1384 2
40.0227 62.7092 30.1225 2286 1
42.737 62.208 30.2291 1439 2
40.4283 64.88 31.8849 2331 1
41.7061 64.8058 29.8658 572 1
42.9312 64.281 32.1997 18756 1
47.6333 64.3337 28.6435 528 2
45.0001 62.0051 29.1054 1391 1
44.5431 62.8177 32.0053 1438 1
44.2685 64.5596 29.1991 1442 2
46.6259 63.0302 30.7183 1443 2
45.1602 65.1632 31.5937 19652 1
47.822 65.9639 31.4737 19614 2
49.2417 63.7482 31.2185 25036 1
52.2182 63.4648 30.9784 19617 2
50.2031 65.6341 29.5133 1446 2
49.74 62.3881 29.1885 19660 2
51.008 65.9652 32.3465 2388 2
54.4621 61.8204 29.1581 18770 1
54.6318 63.8117 30.2076 19665 1
56.1693 65.4034 31.6547 2430 2
57.1059 63.0181 29.8082 20521 2
17.7314 23.2556 49.1493 6476 2
53.7644 65.586 32.6461 1490 1
56.852 63.0599 32.7038 20518 1
54.2212 63.1147 32.8435 1489 2
60.963 65.681 29.7092 19670 2
58.6882 64.9732 30.8698 20522 1
60.082 62.8428 29.9004 18729 2
60.9308 64.8188 32.2218 20566 2
59.1158 62.264 32.2276 20525 2
65.7145 66.2125 28.5665 2354 1
63.7137 61.769 28.8527 19580 2
65.0781 62.3334 32.0176 20528 2
62.7128 63.6287 30.2413 25860 1
65.3595 63.9365 29.9666 19625 1
64.0347 65.7096 30.1339 19624 1
64.0347 64.6327 32.4868 20575 2
67.4942 64.3198 29.2053 602 1
67.7544 63.1724 31.3298 20533 1
70.135 63.5429 30.1702 20527 2
68.8794 65.0272 32.1884 25854 1
69.4381 65.9526 29.3424 18736 2
66.7787 65.9652 31.1854 21433 2
28.8307 18.1815 54.8348 6454 2
71.6702 64.8424 28.5363 1461 1
71.7454 61.9452 31.2865 21396 1
73.4356 63.3141 29.6839 19679 2
72.1067 66.1266 30.7916 21693 2
71.2666 64.3313 32.5616 19639 1
73.7888 63.8313 32.256 22549 2
71.45 62.2877 28.1468 19632 1
69.3742 73.6324 71.1439 26004 1
18.7269 67.428 29.5955 54678 1
21.1245 68.4065 29.2395 63142 1
20.9986 67.1326 31.4314 63177 2
18.3864 66.6496 31.8673 50692 1
19.7445 70.2071 30.5792 54810 2
21.7764 70.6107 29.1786 63128 1
23.7703 66.1685 31.8294 55685 1
23.1204 66.7836 29.733 63141 1
23.1074 69.1304 31.1287 54677 2
25.1991 67.4899 30.1145 63140 1
25.6973 69.8406 30.4076 63124 1
25.5213 68.044 32.7737 55681 2
27.8539 67.2459 31.515 63144 2
29.1841 67.7535 29.2539 1383 1
28.4373 70.131 30.7574 63139 2
26.9857 68.4379 28.9808 55682 1
30.7751 66.7503 31.5337 63037 2
30.4143 69.1229 32.299 63039 2
31.8067 68.1191 29.3029 63014 2
34.2781 67.9356 29.0251 48819 1
33.4403 69.9105 31.096 4408 2
33.8166 66.8977 31.6331 5806 2
30.989 70.4113 29.9295 4458 1
53.2629 41.864 28.5059 1167 1
38.3797 66.4908 31.315 2332 1
36.1976 68.3243 30.7808 2373 2
38.8082 69.0596 31.0423 2419 1
37.7856 67.0519 28.8298 4413 2
40.6753 67.438 29.9774 1482 2
43.4236 68.3038 29.8755 579 1
42.9453 66.6248 31.6119 2420 2
41.9673 69.1096 31.8168 1485 1
45.8022 66.9043 29.2978 578 2
47.8856 68.0248 29.5156 1528 1
44.4659 69.8478 32.087 1483 2
47.2966 69.3558 32.0173 3294 2
45.4477 67.3979 31.9856 25034 1
45.7373 69.4454 29.9263 3300 1
29.7786 18.1118 66.2558 10018 2
49.4941 67.9374 31.1625 2338 1
51.7882 68.0057 30.6618 2427 1
52.2046 70.1428 29.7898 2431 1
49.6307 70.7185 30.7047 2426 2
51.4645 69.6267 32.6609 24995 2
53.3171 66.043 30.1756 2381 2
54.351 70.1497 31.3893 1533 2
55.4743 67.8552 30.3007 2425 1
53.8077 67.8654 32.0804 2384 1
57.3159 69.9408 29.8 19667 2
56.5937 68.0914 32.5364 2439 2
60.9394 69.1802 29.6427 19718 2
60.4779 67.8877 31.7363 20569 1
58.427 67.4185 29.8787 25882 2
58.7982 69.7286 31.8091 25855 1
58.843 66.8105 32.5906 20474 1
62.5987 67.0776 31.3375 20571 1
63.7542 69.9405 29.1371 21779 1
65.2001 68.187 30.5008 20529 2
62.9861 69.4824 31.2386 21735 1
66.052 68.9732 32.687 19669 1
42.1652 74.8788 46.931 8123 2
68.1414 69.32 31.3083 22589 2
67.6051 67.6507 29.4534 19629 1
69.7065 66.5238 32.4304 23502 2
66.9348 70.4827 28.6801 21739 2
70.287 68.5227 30.3031 25816 1
71.3587 70.4992 28.7909 18741 1
73.2268 68.9866 29.9903 2592 2
73.714 70.0219 32.2062 21748 1
74.5219 67.2424 32.1645 22592 2
71.6816 68.304 32.1593 25853 1
71.4737 67.5266 28.5343 2396 1
19.3955 73.3201 31.3933 54859 2
20.7002 72.8087 28.8875 54023 2
17.9548 71.8649 29.0469 63105 1
18.3257 74.5916 28.6775 63363 2
22.3121 74.4894 31.1779 63116 2
21.9245 71.7879 31.8638 62901 2
23.7369 72.0842 29.6568 63118 2
24.8282 71.2835 31.8643 63010 1
24.6407 73.8732 31.9857 4505 2
25.2196 74.7475 29.662 63005 2
26.8634 72.6646 31.0161 48908 1
29.007 72.4584 32.3228 4507 1
29.7704 72.7353 29.6867 3587 2
27.6256 74.0901 28.8862 3538 1
26.6277 71.6562 28.6291 63125 2
74.9947 32.9238 52.9334 29213 1
34.0273 74.282 29.1065 3590 1
34.869 71.5001 29.4103 21775 1
33.9302 72.9033 31.8153 3599 2
32.6408 72.321 29.6987 4512 1
31.3836 72.0147 31.971 3543 2
37.6317 70.9142 29.823 3597 1
35.9593 71.0897 31.497 3598 1
36.3939 73.5413 30.0004 3602 2
39.1545 72.4591 31.5707 4520 2
36.735 73.4606 32.7218 23876 2
39.4126 74.5601 33.3689 4522 1
17.6786 19.7085 34.6091 59349 2
43.6658 70.5272 29.2971 530 1
40.871 70.4187 29.9005 2374 2
42.3362 72.5298 28.5944 577 2
42.3887 72.1035 31.5509 1532 2
40.9972 73.9133 30.1094 19699 1
47.6136 70.6171 29.3477 1535 1
45.33 72.1548 30.4784 1487 2
47.8392 72.5443 31.5551 2424 2
46.2486 74.423 29.1934 37850 1
48.5033 73.0809 28.7463 633 2
45.6052 74.5957 31.6192 21842 1
29.9715 74.8791 51.0619 26267 2
50.3825 73.7208 30.5801 21736 1
52.1318 71.918 31.2876 22630 1
52.5666 74.316 31.4731 22632 1
50.4203 72.8018 33.0331 11466 2
53.1411 74.9684 54.2518 8178 2
53.9632 73.0999 30.0542 21526 1
56.6711 72.212 31.1146 21476 2
56.1239 74.1065 29.3869 12850 1
55.3474 74.5723 31.5358 21729 1
54.0912 72.5745 33.0171 24394 2
58.4795 74.6783 31.6376 20618 2
59.6139 71.939 30.2077 20619 2
60.9946 74.0766 29.5007 21788 2
58.2609 74.2178 29.1991 25814 1
61.2422 73.6072 32.3008 21730 2
61.1277 70.6064 32.5311 20570 2
58.9145 72.011 32.7517 20616 1
62.4712 71.7287 30.5841 25856 1
65.2259 70.9567 31.1908 20824 2
63.9299 74.1669 30.5718 22588 2
65.9428 73.1677 32.5834 22638 2
63.583 72.208 32.6422 25778 1
69.2108 70.8523 29.4419 21740 1
67.0668 73.3521 29.5996 21781 2
70.5838 73.0262 29.5584 22688 2
68.5111 72.1049 31.6718 21737 2
71.1453 70.7803 31.6753 22642 2
72.809 71.8544 30.1151 21785 1