LAMMPS (9 Nov 2011)
Reading restart file ...
  orthogonal box = (-0.0675146 -0.174103 17.3071) to (48.1975 169.834 338.891)
  1 by 1 by 2 processor grid
  160000 atoms
WARNING: Resetting reneighboring criteria during minimization (min.cpp:162)
Setting up minimization ...
Memory usage per processor = 122.716 Mbytes
Step Temp KinEng PotEng TotEng Press Pxx Pyy Pzz Pxy Pxz Pyz Ly Lx Lz 
       0    333.97781   0.04316975   -5.0242984   -4.9811287    134653.08    125797.78     125647.2    152514.27    53.631878    270.59301   -157.24618    170.00837    48.265061     321.5835 
     100    333.97781   0.04316975   -5.0546276   -5.0114579     93812.05    85776.447    85644.028    110015.68    70.713325    244.06535    -138.9222    171.36722    48.651408    324.79933 
     200    333.97781   0.04316975   -5.0742164   -5.0310466     58707.16     51610.15    51498.351    73012.978     85.10392     218.0296   -122.12483    172.62486    49.009174    328.01517 
     300    333.97781   0.04316975    -5.084761   -5.0415913    29785.338    23840.596    23756.658     41758.76    94.896282    194.42179   -107.49483    173.69838    49.314915      331.231 
     400    333.97781   0.04316975   -5.0886509   -5.0454811    9175.5593    4889.9328    4842.9254     17793.82    100.81437    171.59597   -100.82499    174.35085    49.501578    334.44684 
     500    333.97781   0.04316975   -5.0895982   -5.0464285    2635.3683    1299.8269    1301.5946    5304.6835    106.51978    148.33677   -111.41856    174.01702    49.408736    337.66267 
     600    333.97781   0.04316975   -5.0897739   -5.0466042    2475.0519    2517.4609    2452.6433    2455.0516    108.72653     139.6931   -118.43593    173.73057    49.322822    338.86767 
     700    333.97781   0.04316975   -5.0899864   -5.0468166    2400.0801      2420.46     2383.607    2396.1734    109.08484    139.70151   -118.26817    173.73046      49.3245    338.86994 
     800    333.97781   0.04316975   -5.0901462   -5.0469765    2528.6726    2555.0939    2510.7923    2520.1314    109.34438    139.77752   -118.30265    173.72227    49.321705    338.85966 
     900    333.97781   0.04316975   -5.0903474   -5.0471777    2449.6031    2528.2707    2402.4666     2418.072    109.68499    139.63696   -118.05372    173.73003    49.318856    338.87968 
    1000    333.97781   0.04316975   -5.0904838    -5.047314    2491.2121    2460.4451    2530.0114    2483.1799    109.94633    139.76964   -118.29656    173.70763     49.32455    338.86584 
    1100    333.97781   0.04316975   -5.0906525   -5.0474827     2670.705    2638.1702    2715.9103    2658.0344    110.20793     139.8826   -118.39845    173.69509    49.321477    338.85034 
    1200    333.97781   0.04316975   -5.0907672   -5.0475974    2314.4425     2286.997    2345.3461    2310.9843    110.44087    139.66037   -117.98022    173.71473    49.325849    338.88456 
    1300    333.97781   0.04316975    -5.090964   -5.0477942     2378.646    2405.1834    2355.4821    2375.2724    110.72917    139.70138   -117.75855    173.72079    49.320886    338.87935 
    1400    333.97781   0.04316975    -5.091082   -5.0479122    2528.0771    2491.6109    2573.4001    2519.2204    110.94538    139.80652   -118.06945    173.69691    49.322207    338.86697 
    1500    333.97781   0.04316975   -5.0912146   -5.0480448    2389.3066    2360.5417    2423.5121    2383.8661    111.17831     139.7158   -117.85129    173.70467    49.323238    338.88108 
    1600    333.97781   0.04316975   -5.0913742   -5.0482044    2869.8638    2880.1482    2876.6722    2852.7709    111.37375    140.02058   -118.10303     173.6844    49.313375    338.83717 
2 total processes killed (some possibly by mpirun during cleanup)
