LAMMPS (9 Nov 2011)
Reading restart file ...
  orthogonal box = (-0.0675146 -0.174103 17.3071) to (48.1975 169.834 338.891)
  1 by 1 by 2 processor grid
  160000 atoms
Setting up run ...
Memory usage per processor = 113.24 Mbytes
Step Temp KinEng PotEng TotEng Press Pxx Pyy Pzz Pxy Pxz Pyz Ly Lx Lz 
       0    333.97781   0.04316975   -5.0242984   -4.9811287    134653.08    125797.78     125647.2    152514.27    53.631878    270.59301   -157.24618    170.00837    48.265061     321.5835 
     100    333.18328  0.043067051   -5.0245002   -4.9814331    134290.07    125491.35    125529.09    151849.77    150.83741    301.32564   -140.30451    170.00837    48.265061    321.64781 
     200    333.30019  0.043082162    -5.024822   -4.9817398     134028.3    125211.05    125237.27    151636.58    290.36524     303.5174   -20.665606    170.00837    48.265061    321.71213 
     300     333.3766  0.043092039   -5.0251375   -4.9820455    133648.36    124947.89    124975.57    151021.62    124.57526    181.77595   -199.94318    170.00837    48.265061    321.77645 
     400    334.31596   0.04321346    -5.025564   -4.9823505    133388.68    124801.34    124704.71    150659.97    247.39012    272.44283   -119.55787    170.00837    48.265061    321.84076 
     500    332.75815  0.043012098   -5.0256666   -4.9826545    133135.99    124616.74    124488.12     150303.1    127.88688    312.67024   -210.00706    170.00837    48.265061    321.90508 
     600     334.0582  0.043180141   -5.0261381   -4.9829579    132793.76    124214.03       124342    149825.26    138.61244    319.79411    -122.7528    170.00837    48.265061     321.9694 
     700    332.98339  0.043041213   -5.0263012     -4.98326    132435.68    123913.77    124035.78    149357.49    179.04565    210.03303   -60.334586    170.00837    48.265061    322.03371 
     800    333.30854  0.043083241   -5.0266446   -4.9835614    132137.69    123753.82    123632.92    149026.32     200.1267    237.88478   -201.31926    170.00837    48.265061    322.09803 
     900    333.26338  0.043077403   -5.0269392   -4.9838618     131836.8    123382.16    123597.57    148530.67     215.6186     283.7241   -82.289153    170.00837    48.265061    322.16235 
    1000    333.20104  0.043069345   -5.0272309   -4.9841615    131541.96    123255.93    123106.96       148263    260.65535    239.61076   -87.164856    170.00837    48.265061    322.22666 
    1100    332.81282  0.043019165   -5.0274796   -4.9844604    131175.59    122965.16    122798.16    147763.47    138.42087    336.30692    6.9457284    170.00837    48.265061    322.29098 
    1200    334.14995  0.043192001   -5.0279506   -4.9847586    130802.58    122585.06    122597.58    147225.11    114.17207    275.15049    44.568534    170.00837    48.265061     322.3553 
    1300    333.66147  0.043128861   -5.0281841   -4.9850552     130483.5     122309.6    122279.06    146861.84    97.744471    298.26589  -0.78025654    170.00837    48.265061    322.41961 
    1400    332.98761  0.043041757   -5.0283934   -4.9853517    130233.69    122120.16    121966.81    146614.09    14.912887    214.68293    -174.1856    170.00837    48.265061    322.48393 
    1500    331.93183  0.042905288   -5.0285518   -4.9856465     129867.8    121844.82     121880.4    145878.18    92.308383    298.34716   -45.951405    170.00837    48.265061    322.54825 
    1600     333.2513  0.043075843   -5.0290172   -4.9859414    129698.57     121641.9     121638.9    145814.92    297.15069    270.86657   -146.21534    170.00837    48.265061    322.61256 
    1700    333.25514  0.043076339   -5.0293114   -4.9862351    129336.08    121311.57    121443.53    145253.13    88.797134    356.36638   -42.002402    170.00837    48.265061    322.67688 
    1800    333.94841  0.043165951   -5.0296943   -4.9865283     128987.5    121032.17    121089.44    144840.88    47.910972    222.29706   -107.01701    170.00837    48.265061     322.7412 
    1900    333.80235  0.043147071   -5.0299674   -4.9868203    128731.28    120835.29    120800.29    144558.26   -3.6599896    367.40019   -106.62139    170.00837    48.265061    322.80551 
    2000    334.66972  0.043259186   -5.0303708   -4.9871116    128372.15    120565.32    120523.91    144027.22   -22.575082    374.28788   -19.647131    170.00837    48.265061    322.86983 
    2100    333.30325  0.043082557   -5.0304846   -4.9874021    128138.49    120350.73    120318.77    143745.95    163.88731     194.8632    41.889482    170.00837    48.265061    322.93415 
    2200    334.01843  0.043175001   -5.0308669   -4.9876919    127778.07    119970.93    119994.61    143368.67     117.6774    246.50909   -77.271729    170.00837    48.265061    322.99846 
    2300     333.0765  0.043053248   -5.0310341   -4.9879809    127615.96    119792.67    119891.65    143163.58     156.6175    262.07654   -104.44633    170.00837    48.265061    323.06278 
    2400    334.07052  0.043181733   -5.0314511   -4.9882693    127158.02    119295.57    119408.87    142769.62     214.3253     288.1915   -83.333797    170.00837    48.265061     323.1271 
    2500    333.63192  0.043125041   -5.0316822   -4.9885571    126898.11    119058.43    119185.01    142450.87    244.20708    325.15647   -14.668113    170.00837    48.265061    323.19141 
    2600    334.29069  0.043210193   -5.0320544   -4.9888442    126594.51    118959.97    118844.89    141978.68    232.35136    320.08716   -58.211264    170.00837    48.265061    323.25573 
    2700    333.10894   0.04305744   -5.0321878   -4.9891304    126305.63       118597    118680.96    141638.94    177.60905    337.78471   -181.25954    170.00837    48.265061    323.32005 
    2800    333.13281  0.043060527   -5.0324766    -4.989416    125969.87    118342.43    118307.32    141259.87    72.738592    352.95112    4.9904188    170.00837    48.265061    323.38436 
    2900    333.62066  0.043123585   -5.0328243   -4.9897007    125708.84    118063.03    118211.43    140852.07     244.9848    314.71142   -32.542381    170.00837    48.265061    323.44868 
    3000     333.9122  0.043161269   -5.0331457   -4.9899844    125467.68    117976.78    118009.56     140416.7    66.054699    373.49024   -95.640844    170.00837    48.265061      323.513 
    3100     333.8772  0.043156746   -5.0334243   -4.9902676    125114.78    117596.35    117678.06    140069.92    109.40214    175.35138   -61.990485    170.00837    48.265061    323.57731 
    3200    333.55988   0.04311573   -5.0336655   -4.9905498    124804.87     117204.8    117424.15    139785.65    287.53826     309.8382   -181.40171    170.00837    48.265061    323.64163 
    3300    333.65384  0.043127874   -5.0339594   -4.9908315    124555.61    117056.59     117122.7    139487.53    141.36896    334.13104    -52.85431    170.00837    48.265061    323.70595 
    3400    333.33498  0.043086658   -5.0341992   -4.9911125    124175.54     116744.4    116814.71    138967.53    49.177313    350.78009   -18.161301    170.00837    48.265061    323.77026 
    3500    332.99977   0.04304333   -5.0344358   -4.9913925       123900    116459.92    116603.66    138636.42    160.13814    276.58737   -19.273069    170.00837    48.265061    323.83458 
    3600     333.8434  0.043152376   -5.0348247   -4.9916723    123668.45    116285.18    116312.65    138407.53    34.135832    441.29446   -146.07345    170.00837    48.265061     323.8989 
    3700    334.06536  0.043181067    -5.035132   -4.9919509    123268.58    115889.72    116088.27    137827.75     90.57266    361.28908    42.803031    170.00837    48.265061    323.96321 
    3800    334.06512  0.043181036     -5.03541   -4.9922289    123034.43    115584.46    115802.29    137716.53    41.589599    305.68244    -131.0664    170.00837    48.265061    324.02753 
    3900    333.74395  0.043139521   -5.0356453   -4.9925058    122681.99    115365.78    115599.82    137080.37     62.28463    230.04954    95.162359    170.00837    48.265061    324.09185 
    4000    333.72891  0.043137577   -5.0359196   -4.9927821    122397.62    115089.83     115211.2    136891.83    131.60176    345.04033   -54.100519    170.00837    48.265061    324.15616 
    4100    334.70634   0.04326392   -5.0363217   -4.9930578    122062.51    114914.78    114918.02    136354.72    136.92214    367.89552   -179.51824    170.00837    48.265061    324.22048 
    4200    333.33445   0.04308659    -5.036419   -4.9933324    121817.64    114605.82    114702.55    136144.54    72.502275    374.78804    -64.32462    170.00837    48.265061     324.2848 
    4300     334.3502  0.043217885   -5.0368246   -4.9936067    121617.39    114275.51    114680.88    135895.79    130.15517    358.92606     -132.876    170.00837    48.265061    324.34911 
    4400    333.76332  0.043142025   -5.0370222   -4.9938802    121244.39    114066.24    114307.48    135359.43    102.83665    365.33288   -66.981476    170.00837    48.265061    324.41343 
    4500    334.37424  0.043220992   -5.0373738   -4.9941528    120989.95    113812.28    114060.59    135096.97    18.405639    380.14499   -203.08666    170.00837    48.265061    324.47775 
    4600    334.67959  0.043260462   -5.0376853   -4.9944248    120652.26    113353.12    113852.91    134750.76     123.8466    358.44105    -109.8926    170.00837    48.265061    324.54206 
    4700    334.36143  0.043219337   -5.0379153    -4.994696    120348.87    113267.86    113472.44    134306.31    122.07795    423.07262   -193.50701    170.00837    48.265061    324.60638 
    4800    334.03718  0.043177425    -5.038144   -4.9949666    120075.58    113034.27    113158.67    134033.79    159.02448    277.12576   -36.712878    170.00837    48.265061     324.6707 
    4900    333.67845  0.043131055   -5.0383676   -4.9952366    119740.16    112706.13    112836.36       133678    144.86835    364.13569   -27.671448    170.00837    48.265061    324.73501 
    5000    334.79556  0.043275452   -5.0387812   -4.9955058    119544.99    112488.58    112715.62    133430.77    127.52932    214.17995   -66.046732    170.00837    48.265061    324.79933 
    5100    334.03274   0.04317685   -5.0389511   -4.9957742    119184.68    112211.13     112381.1    132961.81    94.412497    453.36731   -84.698463    170.00837    48.265061    324.86365 
    5200    333.73079  0.043137821   -5.0391798   -4.9960419    118896.25    112063.78    112033.57    132591.42    194.52724     348.6104    18.645704    170.00837    48.265061    324.92796 
    5300    333.86037   0.04315457   -5.0394631   -4.9963086    118557.65    111712.29    111872.62    132088.02    156.22749    337.19969   -110.38665    170.00837    48.265061    324.99228 
    5400    334.50804  0.043238287    -5.039813   -4.9965747    118253.95    111478.94    111513.97    131768.93    127.77107    267.76574    -43.73109    170.00837    48.265061     325.0566 
    5500    334.05772   0.04318008   -5.0400202   -4.9968401    118142.87    111179.92    111509.33    131739.35    68.929655    465.45396   -83.577497    170.00837    48.265061    325.12092 
    5600    334.50114  0.043237396   -5.0403424    -4.997105    117661.17    110912.99     110910.5    131160.03    277.42395     274.1703   -59.308998    170.00837    48.265061    325.18523 
    5700    333.62632  0.043124317   -5.0404933    -4.997369    117462.54    110590.07    110807.12    130990.42    86.031418    319.16491    103.24976    170.00837    48.265061    325.24955 
    5800     334.4596  0.043232027   -5.0408646   -4.9976326    117116.04    110327.58    110597.36    130423.16    253.94788    362.55919   -58.762311    170.00837    48.265061    325.31387 
    5900    334.40396  0.043224834   -5.0411198    -4.997895    116848.12    110228.73    110229.38    130086.25    76.255699    334.53343    98.294612    170.00837    48.265061    325.37818 
    6000    333.48708  0.043106319   -5.0412629   -4.9981566    116556.95    109911.18     110049.4    129710.26    208.64034    369.38148   -49.279334    170.00837    48.265061     325.4425 
    6100    334.18376  0.043196371   -5.0416139   -4.9984176    116240.54    109655.17     109705.8    129360.64    33.042731    340.76831   -52.605734    170.00837    48.265061    325.50682 
    6200    333.24104  0.043074515   -5.0417521   -4.9986776    115992.55    109436.34    109594.55    128946.74    62.132215    360.32843   -76.856231    170.00837    48.265061    325.57113 
    6300    334.79629  0.043275546   -5.0422126    -4.998937    115665.02    109132.13    109221.93    128640.98    80.914391    254.53897   -19.611149    170.00837    48.265061    325.63545 
    6400    333.97825  0.043169807   -5.0423657   -4.9991959    115409.15    108783.53     108874.3     128569.6    81.645068    245.53849   -77.056587    170.00837    48.265061    325.69977 
    6500     333.2005  0.043069275   -5.0425234   -4.9994541    115150.92    108722.51    108696.16    128034.09    151.55873    214.67489   -80.798926    170.00837    48.265061    325.76408 
    6600     334.1155  0.043187548   -5.0428992   -4.9997117    114842.07    108176.98    108641.91    127707.33    155.41785    320.83487    18.728389    170.00837    48.265061     325.8284 
    6700    333.80919  0.043147955   -5.0431163   -4.9999683     114550.8       108002    108280.85    127369.55    194.78034    284.08081    74.299264    170.00837    48.265061    325.89272 
    6800    334.14728  0.043191656   -5.0434164   -5.0002248    114163.28    107741.42    107786.99    126961.42    190.61574    216.51931   -97.189479    170.00837    48.265061    325.95703 
    6900    333.31974  0.043084689   -5.0435648   -5.0004801    113979.59    107508.08    107650.51    126780.18    216.50265    210.15157    34.391838    170.00837    48.265061    326.02135 
    7000    334.15759  0.043192989   -5.0439282   -5.0007352    113665.26    107159.67    107358.27    126477.85    51.650656    257.48771   -125.80764    170.00837    48.265061    326.08567 
    7100    333.84554  0.043152653   -5.0441422   -5.0009895    113396.98    107004.92    107077.36    126108.66    110.37826    139.58442   -83.710127    170.00837    48.265061    326.14998 
    7200    334.06632  0.043181192    -5.044424   -5.0012428     113026.4    106626.63    106812.09    125640.47    77.783078    178.17314    -59.24691    170.00837    48.265061     326.2143 
    7300    332.96149  0.043038381    -5.044534   -5.0014956    112807.18    106414.31    106483.37    125523.88    366.79229    151.38189   -21.575446    170.00837    48.265061    326.27862 
    7400    334.82529  0.043279295   -5.0450272   -5.0017479       112502    106164.73    106233.89    125107.37    320.30615     252.0692   -28.151886    170.00837    48.265061    326.34293 
    7500    334.47219  0.043233654   -5.0452329   -5.0019992    112206.33    105708.71    106108.12    124802.17    185.52064    289.68764   -66.730745    170.00837    48.265061    326.40725 
    7600    334.32101  0.043214112   -5.0454641     -5.00225    111900.11    105613.21    105662.13       124425    173.24988    228.63685    78.776719    170.00837    48.265061    326.47157 
    7700      333.919  0.043162148   -5.0456623   -5.0025001    111650.57    105328.59    105592.62     124030.5    273.34467    209.67434   -32.355311    170.00837    48.265061    326.53588 
    7800    333.81384  0.043148555   -5.0458979   -5.0027493    111298.92    105083.96    105062.75    123750.06    281.82455     36.74615   -50.592573    170.00837    48.265061     326.6002 
    7900    334.24192  0.043203889    -5.046202   -5.0029982    111046.42    104759.33    105022.39    123357.54    127.77097    263.41347    -90.68557    170.00837    48.265061    326.66452 
    8000    333.84846   0.04315303   -5.0463991   -5.0032461    110705.01    104380.11    104718.35    123016.58    244.21477    311.80922   -53.551706    170.00837    48.265061    326.72883 
    8100     333.5947   0.04312023   -5.0466136   -5.0034933     110483.3    104299.74    104434.31    122715.84    103.89389     224.4369   -32.893217    170.00837    48.265061    326.79315 
    8200    334.22156  0.043201258   -5.0469413     -5.00374    110249.62    104049.67    104150.72    122548.46    157.14913    246.75168    39.828953    170.00837    48.265061    326.85747 
    8300     333.6095  0.043122142   -5.0471082   -5.0039861    109944.24    103788.96    104096.27    121947.49    207.70862    249.73951   -24.579214    170.00837    48.265061    326.92178 
    8400    334.04663  0.043178646   -5.0474097    -5.004231     109651.5    103559.15    103740.28    121655.08   -52.494781    217.86066   -129.01808    170.00837    48.265061     326.9861 
    8500    333.29384  0.043081341   -5.0475567   -5.0044754     109335.1     103105.2    103422.54    121477.55    92.882334     169.1489   -55.996404    170.00837    48.265061    327.05042 
    8600    333.65185  0.043127617   -5.0478469   -5.0047193    109039.45    103090.38    103056.46     120971.5    165.36118    227.84478   -57.122618    170.00837    48.265061    327.11473 
    8700    334.13035  0.043189467   -5.0481521   -5.0049626    108791.72    102767.67    102919.26    120688.23    259.27019    298.87865   -68.490342    170.00837    48.265061    327.17905 
    8800    333.81958  0.043149298   -5.0483542   -5.0052049    108394.35    102347.08     102554.1    120281.86    160.52488    281.98691   -68.483021    170.00837    48.265061    327.24337 
    8900    333.96654  0.043168294   -5.0486148   -5.0054466    108217.84    102121.48    102491.67    120040.38    172.95785    104.48203   -80.113774    170.00837    48.265061    327.30768 
    9000    333.77822  0.043143952   -5.0488315   -5.0056876    107883.25    101907.77    102191.32    119550.68      207.086    220.42771   -105.86161    170.00837    48.265061      327.372 
    9100    333.63605  0.043125574   -5.0490536    -5.005928    107574.54       101577    101845.25    119301.37     33.34236    111.78795   -103.66733    170.00837    48.265061    327.43632 
    9200    332.92976   0.04303428   -5.0492017   -5.0061675    107365.14    101458.23    101691.27    118945.93    205.37792    150.32849   -83.425826    170.00837    48.265061    327.50063 
    9300    333.64543  0.043126787   -5.0495332   -5.0064064    107018.05    101125.63     101330.1    118598.43    224.27131    162.91497    15.991079    170.00837    48.265061    327.56495 
    9400    333.92102   0.04316241   -5.0498073   -5.0066448    106771.67    100927.27    101032.95     118354.8    147.94165    107.32266   -133.62962    170.00837    48.265061    327.62927 
    9500    333.89168  0.043158617   -5.0500411   -5.0068825    106500.97    100421.44    100879.79    118201.67    138.73233    188.47435   -112.65217    170.00837    48.265061    327.69358 
    9600    333.02554  0.043046661   -5.0501661   -5.0071195    106202.11    100296.62    100635.48    117674.24    160.17925    119.90364   -157.11363    170.00837    48.265061     327.7579 
    9700      333.052   0.04305008   -5.0504059   -5.0073558    105957.04    100166.94    100406.89    117297.28    243.66684    93.838944   -195.95149    170.00837    48.265061    327.82222 
    9800    333.53784  0.043112881   -5.0507043   -5.0075914    105637.91    99863.796    100013.66    117036.27    201.82778    229.67554   -103.59486    170.00837    48.265061    327.88653 
    9900     333.5385  0.043112965   -5.0509392   -5.0078263    105295.13    99561.799    99758.511    116565.07    216.36145    124.95856   -95.651789    170.00837    48.265061    327.95085 
   10000    333.33492   0.04308665   -5.0511468   -5.0080602    105095.31    99257.041     99676.21    116352.67    130.70043    193.28308   -119.02645    170.00837    48.265061    328.01517 
   10100    332.67336  0.043001138   -5.0512948   -5.0082937    104873.33    99264.337    99366.533    115989.13     244.8526     150.1257   -133.92745    170.00837    48.265061    328.07948 
   10200    333.38123  0.043092637   -5.0516194   -5.0085267    104516.05    98803.397    99081.123    115663.63    243.10347    55.905157   -58.038685    170.00837    48.265061     328.1438 
   10300    332.73722  0.043009393    -5.051768   -5.0087586    104261.37    98696.847    98708.832    115378.43    160.94939    94.422809   -133.04739    170.00837    48.265061    328.20812 
   10400    332.93018  0.043034334   -5.0520245   -5.0089902    103964.65    98365.848    98433.594    115094.49    286.80231    207.71212   -169.84051    170.00837    48.265061    328.27243 
   10500    333.19658  0.043068769     -5.05229   -5.0092212    103604.88    97850.674    98242.672    114721.31    135.83517     162.5024   -82.256249    170.00837    48.265061    328.33675 
   10600    332.68809  0.043003042   -5.0524546   -5.0094516    103406.85    97828.828    97935.677    114456.04    166.82798    105.56458   -59.102638    170.00837    48.265061    328.40107 
   10700    332.97227  0.043039775   -5.0527211   -5.0096813    103164.46    97463.655    97972.444    114057.29    222.78491    175.15285    -40.52707    170.00837    48.265061    328.46538 
   10800    332.96314  0.043038595   -5.0529488   -5.0099102    102786.34    97195.588    97388.098    113775.32    224.81768   -35.566728   -106.76097    170.00837    48.265061     328.5297 
   10900    333.46856  0.043103924   -5.0532423   -5.0101384    102532.07    96967.108    97258.554    113370.55    186.44461    133.68337   -120.65573    170.00837    48.265061    328.59402 
   11000    332.70045   0.04300464   -5.0533702   -5.0103656    102241.08     96614.55    97099.016    113009.69    272.66063    227.26765    4.0330483    170.00837    48.265061    328.65833 
   11100    333.68592  0.043132021   -5.0537245   -5.0105925    101971.87     96564.81    96637.097    112713.71    134.65485    146.24853   -110.56035    170.00837    48.265061    328.72265 
   11200    333.33394  0.043086524   -5.0539048   -5.0108183    101709.13    96186.399    96522.727    112418.25    290.99949    44.325731   -62.172841    170.00837    48.265061    328.78697 
   11300     333.4563   0.04310234    -5.054146   -5.0110437    101390.68    96081.337    96205.134    111885.56    159.46035    38.254383   -62.899552    170.00837    48.265061    328.85128 
   11400    333.11351  0.043058031   -5.0543263   -5.0112683    101120.16    95662.874    95942.007    111755.61     106.7996    155.33441    -54.25656    170.00837    48.265061     328.9156 
   11500    333.33638  0.043086839   -5.0545791   -5.0114923    100881.43    95616.225    95714.595    111313.46    262.42673    128.33701    -42.17535    170.00837    48.265061    328.97992 
   11600    333.59417  0.043120162   -5.0548356   -5.0117154    100629.31      95282.6    95400.324    111205.01    217.75875    212.24213   -137.38389    170.00837    48.265061    329.04423 
   11700    332.18903  0.042938534   -5.0548765    -5.011938    100294.59    94942.061    95293.682    110648.02      237.611    117.04211   -158.69238    170.00837    48.265061    329.10855 
   11800     332.4292  0.042969578   -5.0551294   -5.0121599    100026.75    94738.236    95017.756    110324.25    141.06168    232.38702   -78.594188    170.00837    48.265061    329.17287 
   11900    332.43942  0.042970899   -5.0553521   -5.0123812    99724.019    94474.012    94649.488    110048.56    152.41582    161.54445   -171.73235    170.00837    48.265061    329.23718 
   12000     333.1605  0.043064105    -5.055666   -5.0126019    99540.382    94318.258    94509.682    109793.21    196.23935    174.75033   -107.84077    170.00837    48.265061     329.3015 
   12100    332.69386  0.043003788   -5.0558258    -5.012822    99202.562    94052.414    94145.618    109409.65    176.72909     140.3942   -198.65647    170.00837    48.265061    329.36582 
   12200    333.29118  0.043080997   -5.0561224   -5.0130414    98974.272    93634.233    94100.704    109187.88    167.74095    68.915787   -170.33398    170.00837    48.265061    329.43013 
   12300    332.49568  0.042978172    -5.056238   -5.0132599     98692.23    93416.948    93857.773    108801.97    224.02677     242.9186   -39.315857    170.00837    48.265061    329.49445 
   12400    332.34892  0.042959201   -5.0564371   -5.0134779    98406.777    93240.482    93492.788    108487.06    156.31431    124.13424   -101.34678    170.00837    48.265061    329.55877 
   12500    331.70355  0.042875781    -5.056571   -5.0136952    98144.479    93059.516    93140.143    108233.78    192.23047    62.268732    51.902641    170.00837    48.265061    329.62308 
   12600     332.0248  0.042917306   -5.0568294   -5.0139121     97899.84    92756.736    93057.525    107885.26    119.91843    145.57957   -145.78868    170.00837    48.265061     329.6874 
   12700    332.34782  0.042959058   -5.0570876   -5.0141285    97565.815    92516.579    92618.821    107562.04    182.58183    91.688356   -111.66229    170.00837    48.265061    329.75172 
   12800     333.2479  0.043075402   -5.0574194   -5.0143439    97255.254     92288.46    92391.729    107085.57    159.25297    136.27635   -100.53089    170.00837    48.265061    329.81603 
   12900    332.53982  0.042983877   -5.0575424   -5.0145585    96987.481    91857.696     92190.38    106914.37    133.32446    139.20629    -116.0387    170.00837    48.265061    329.88035 
   13000    332.04769  0.042920264   -5.0576928   -5.0147726    96709.142    91591.704    92026.028    106509.69    213.78538    65.205795   -25.818827    170.00837    48.265061    329.94467 
   13100    332.26172   0.04294793    -5.057934   -5.0149861     96378.96    91339.183    91522.007    106275.69    186.30249    46.237462   -93.061303    170.00837    48.265061    330.00898 
   13200    332.44033  0.042971017     -5.05817    -5.015199    96176.963    91183.508     91490.36    105857.02    267.16398    57.089128   -75.919593    170.00837    48.265061     330.0733 
   13300    332.51253  0.042980349   -5.0583917   -5.0154114    95877.522     90800.23    91132.227    105700.11    270.09069    79.809417   -56.076953    170.00837    48.265061    330.13762 
   13400    333.15287  0.043063119   -5.0586863   -5.0156231     95676.03    90655.329    90963.986    105408.77    156.38455    62.884268   -76.978346    170.00837    48.265061    330.20193 
   13500    332.19055   0.04293873   -5.0587723   -5.0158336    95340.481    90445.834    90792.566    104783.04    24.261681    117.05625    -74.86259    170.00837    48.265061    330.26625 
   13600    332.16817  0.042935837   -5.0589795   -5.0160437    95082.279    90195.191    90510.423    104541.22    120.62971    63.438373   -114.39483    170.00837    48.265061    330.33057 
   13700    332.10506  0.042927679    -5.059181   -5.0162533    94840.647    90006.843    90119.073    104396.02    258.00139    126.94837   -105.48464    170.00837    48.265061    330.39488 
   13800    331.99831  0.042913881   -5.0593763   -5.0164624    94569.483    89527.703    89937.079    104243.67    83.816657    85.557486   -28.273458    170.00837    48.265061     330.4592 
   13900    332.92192  0.043033267   -5.0597043    -5.016671    94242.229    89294.456    89677.542    103754.69    105.90557    133.83477   -118.20335    170.00837    48.265061    330.52352 
   14000    331.83908    0.0428933   -5.0597721   -5.0168788    93957.255     89039.66    89231.139    103600.97    147.73265    -23.21177   -90.646904    170.00837    48.265061    330.58783 
   14100    332.57954  0.042989011    -5.060075    -5.017086    93684.069    88886.953    89067.885    103097.37    261.99928    144.88733   -133.45648    170.00837    48.265061    330.65215 
   14200    331.80649  0.042889086   -5.0601813   -5.0172922    93466.344    88713.357    88881.177     102804.5    242.64451    154.49094   -142.79961    170.00837    48.265061    330.71647 
   14300    332.80697  0.043018409   -5.0605165   -5.0174981    93179.933    88281.412    88598.145    102660.24     141.3312    136.80222   -131.24939    170.00837    48.265061    330.78078 
   14400    332.58302  0.042989461   -5.0606931   -5.0177037    92927.618     88146.34    88300.675    102335.84    122.50844    172.02182   -91.427259    170.00837    48.265061     330.8451 
   14500    331.65553  0.042869573   -5.0607779   -5.0179083    92640.092    87721.415    88157.308    102041.55    99.394649     16.29738    4.2953234    170.00837    48.265061    330.90942 
   14600    330.65096  0.042739724   -5.0608521   -5.0181123    92326.088    87575.682    87833.821    101568.76    252.24996    7.2624477   -179.99372    170.00837    48.265061    330.97373 
   14700    331.31363   0.04282538    -5.061141   -5.0183156    92150.206    87406.805    87757.407    101286.41    175.00099    160.54832   -42.359085    170.00837    48.265061    331.03805 
   14800    332.77324  0.043014049   -5.0615326   -5.0185186    91831.052    87158.996    87350.454    100983.71    224.25808    6.2572312    44.826538    170.00837    48.265061    331.10237 
   14900    332.23003  0.042943833   -5.0616645   -5.0187206    91552.449    86875.257    87025.614    100756.48    130.45627    143.71711    -2.324529    170.00837    48.265061    331.16668 
   15000    332.49415  0.042977973   -5.0619002   -5.0189222    91236.775    86533.027    86860.358    100316.94    93.854768    90.986771   -41.117191    170.00837    48.265061      331.231 
   15100    331.80196  0.042888501   -5.0620115    -5.019123    91028.622    86341.026    86736.523    100008.32    134.32472    116.71867   -85.956813    170.00837    48.265061    331.29532 
   15200    331.43335  0.042840855    -5.062164   -5.0193232    90771.807    86027.799    86408.376    99879.247    149.52297    196.11856   -67.866266    170.00837    48.265061    331.35963 
   15300    332.02412  0.042917218   -5.0624401   -5.0195229    90502.094    85961.694    86100.759    99443.831    196.08146    148.54945   -29.080595    170.00837    48.265061    331.42395 
   15400    331.33175  0.042827722   -5.0625497   -5.0197219    90250.763    85630.308    85861.872     99260.11    227.86567    84.932217    -28.90174    170.00837    48.265061    331.48827 
   15500    332.52189  0.042981559    -5.062902   -5.0199205    89907.417    85311.143    85533.963    98877.145    225.70991    130.90599   -51.748758    170.00837    48.265061    331.55258 
   15600    332.08254  0.042924769   -5.0630431   -5.0201183    89729.763    85166.565    85293.865    98728.859    207.42708    238.08689   -82.545145    170.00837    48.265061     331.6169 
   15700    332.16306  0.042935177   -5.0632506   -5.0203154    89470.503    84935.617    85122.301    98353.591    144.49109    204.58461    68.818075    170.00837    48.265061    331.68122 
   15800    331.08931  0.042796384   -5.0633084    -5.020512    89095.474    84527.968    84782.334     97976.12    13.834714    51.187251   -21.568851    170.00837    48.265061    331.74554 
   15900    331.50178    0.0428497   -5.0635572   -5.0207075    88839.585     84326.39    84600.324    97592.042    273.40004    62.853319    24.738937    170.00837    48.265061    331.80985 
   16000    331.88527   0.04289927   -5.0638019   -5.0209026    88577.268    84176.237    84332.017    97223.551    314.47488     151.5207    39.807617    170.00837    48.265061    331.87417 
   16100    332.13287  0.042931274   -5.0640283    -5.021097    88366.086    83981.091     84084.57    97032.596    49.041632    91.492022    51.052344    170.00837    48.265061    331.93849 
   16200    331.65258  0.042869193   -5.0641599   -5.0212907    88053.757    83562.227    83941.193     96657.85    54.663339    58.866358   -28.807665    170.00837    48.265061     332.0028 
   16300    332.28211  0.042950565   -5.0644344   -5.0214839    87787.612    83360.591    83747.201    96255.044    214.52859    43.114692   -65.881815    170.00837    48.265061    332.06712 
   16400    331.85497  0.042895353   -5.0645716   -5.0216763    87504.814    83047.857    83353.125     96113.46    143.04264     89.35658    23.859534    170.00837    48.265061    332.13144 
   16500    331.85984  0.042895983   -5.0647642   -5.0218682    87274.527    82915.708    83138.032    95769.843    199.73318    60.910716   -14.764101    170.00837    48.265061    332.19575 
   16600     331.5132  0.042851177   -5.0649102   -5.0220591    87037.075    82745.881    82945.914    95419.429    140.81774    24.797179   -48.648145    170.00837    48.265061    332.26007 
   16700    331.41408  0.042838364   -5.0650882   -5.0222498    86735.306    82489.051     82546.21    95170.656    129.99227    21.989393   -94.793774    170.00837    48.265061    332.32439 
   16800    331.41586  0.042838595   -5.0652786     -5.02244    86507.705    82182.498    82489.482    94851.136    101.98765   -2.2785642    -26.11724    170.00837    48.265061     332.3887 
   16900     332.2095   0.04294118   -5.0655708   -5.0226296    86248.335    81967.836    82216.935    94560.233    256.76449    79.734858   -18.344368    170.00837    48.265061    332.45302 
   17000    332.19968   0.04293991   -5.0657583   -5.0228184    86022.052    81773.581    81995.303    94297.271    196.44447    101.14471   -18.913762    170.00837    48.265061    332.51734 
   17100    331.35662  0.042830937   -5.0658376   -5.0230066    85659.742    81401.673    81628.522     93949.03      226.465    14.058291    50.321887    170.00837    48.265061    332.58165 
   17200    331.05951  0.042792533    -5.065987   -5.0231945    85509.843    81228.532    81528.762    93772.237    92.599159    249.73324    -142.7896    170.00837    48.265061    332.64597 
   17300    331.09209  0.042796744   -5.0661781   -5.0233814    85248.704    81088.915    81340.398    93316.799    245.57464    130.19195   -66.135549    170.00837    48.265061    332.71029 
   17400    331.30323  0.042824036   -5.0663917   -5.0235677    84948.897    80767.826    81036.334    93042.532    212.67603    7.6208826    -47.55924    170.00837    48.265061     332.7746 
   17500    330.95148  0.042778569    -5.066532   -5.0237534    84692.689    80474.167    80667.244    92936.655    125.07988    55.765776    17.441773    170.00837    48.265061    332.83892 
   17600    331.16953  0.042806753   -5.0667457   -5.0239389    84376.279    80280.666    80349.214    92498.958    194.02968     19.49853   -27.688867    170.00837    48.265061    332.90324 
   17700     331.4969   0.04284907   -5.0669727   -5.0241236    84160.337    80080.065    80118.563    92282.383    204.36378    13.312795   -14.743393    170.00837    48.265061    332.96755 
   17800    330.89261  0.042770959   -5.0670784   -5.0243075    83895.835    79872.823    79992.999    91821.681    99.218179    74.143857   -10.026394    170.00837    48.265061    333.03187 
   17900    331.70947  0.042876546   -5.0673671   -5.0244906     83572.24    79383.322    79673.251    91660.146    250.64028   -5.8149052     63.93242    170.00837    48.265061    333.09619 
   18000    330.78182  0.042756639   -5.0674301   -5.0246734    83320.766    79262.143     79442.82    91257.334    101.25136    22.949935   -99.422788    170.00837    48.265061     333.1605 
   18100    330.53016  0.042724109   -5.0675795   -5.0248554    83092.117     79069.92    79269.453    90936.979     86.45785    202.05355   -21.072394    170.00837    48.265061    333.22482 
   18200     331.2677  0.042819443   -5.0678566   -5.0250372    82848.834    78684.693    78969.298    90892.512    44.086355   -17.418038   -156.01371    170.00837    48.265061    333.28914 
   18300    331.22922   0.04281447   -5.0680327   -5.0252183     82631.74    78490.998    78806.124    90598.098    224.09263   -27.692156   -30.373545    170.00837    48.265061    333.35345 
   18400    331.12944  0.042801572   -5.0682001   -5.0253986     82290.43    78116.376    78716.526    90038.387    99.636331    80.734012    -100.8311    170.00837    48.265061    333.41777 
   18500    332.03333  0.042918408   -5.0684964    -5.025578    82100.234     78196.28    78514.509    89589.912    274.41825     108.1261   -111.97368    170.00837    48.265061    333.48209 
   18600    331.07674   0.04279476   -5.0685516   -5.0257569    81805.058    77797.515      78152.6     89465.06    75.049231   -6.4119202    39.402571    170.00837    48.265061     333.5464 
   18700    330.39016  0.042706013   -5.0686413   -5.0259353    81531.184    77639.558    77722.535     89231.46    109.23566    14.775434   -82.935856    170.00837    48.265061    333.61072 
   18800    331.03282  0.042789082   -5.0689023   -5.0261132    81269.877    77274.443    77623.404    88911.785    147.05735    120.61209   -46.070126    170.00837    48.265061    333.67504 
   18900    331.49682  0.042849059   -5.0691394   -5.0262903    80962.291    76988.687    77393.613    88504.574    88.748213    66.632415   -14.827262    170.00837    48.265061    333.73935 
   19000    330.37319   0.04270382   -5.0691705   -5.0264667    80713.036    76868.352    76975.028    88295.727     146.1426    94.846914   -48.882722    170.00837    48.265061    333.80367 
   19100    331.54116  0.042854791   -5.0694975   -5.0266427    80564.029    76635.561    76859.749    88196.776    152.26658    63.617617   -9.4432039    170.00837    48.265061    333.86799 
   19200    331.22509  0.042813936   -5.0696322   -5.0268183    80303.545    76539.502    76675.703    87695.429    251.16962   -151.14726    -85.49118    170.00837    48.265061     333.9323 
   19300    330.22245  0.042684335   -5.0696773    -5.026993    79940.573     76208.19    76284.006    87329.524    179.04993    89.251147    19.899834    170.00837    48.265061    333.99662 
   19400    330.73039  0.042749991   -5.0699172   -5.0271672    79782.779    76046.315    76071.411    87230.611    118.68449    108.70349   -46.234206    170.00837    48.265061    334.06094 
   19500    330.89129  0.042770789   -5.0701115   -5.0273407     79488.92    75739.286    75911.056    86816.417    100.90623   -99.089416    5.2137461    170.00837    48.265061    334.12525 
   19600    330.32554   0.04269766   -5.0702112   -5.0275135    79161.277    75285.774    75649.829    86548.227    187.34006    25.509331   -10.579183    170.00837    48.265061    334.18957 
   19700    331.10979  0.042799032   -5.0704852   -5.0276862    79005.886    75272.689    75506.661    86238.308    168.77031   -14.818659    6.9466415    170.00837    48.265061    334.25389 
   19800    330.65516  0.042740267    -5.070598   -5.0278578    78762.394    74962.234    75367.156    85957.793    123.38848    -97.80007   -82.944372    170.00837    48.265061     334.3182 
   19900    330.75017  0.042752547   -5.0707815   -5.0280289    78476.906    74795.966    75025.062     85609.69    169.54176   -26.158695   -106.94481    170.00837    48.265061    334.38252 
   20000    330.40808   0.04270833   -5.0709076   -5.0281992    78144.116     74460.35    74641.077    85330.921    148.38421    15.338219   -34.607412    170.00837    48.265061    334.44684 
   20100    330.28443  0.042692347   -5.0710615   -5.0283692    77897.765    74160.878    74469.418        85063    190.16859   -25.404564    125.28205    170.00837    48.265061    334.51115 
   20200    331.04609  0.042790798   -5.0713296   -5.0285388    77701.305    74059.691    74239.547    84804.676    75.144119   -86.781209    97.482484    170.00837    48.265061    334.57547 
   20300    330.23488  0.042685941   -5.0713932   -5.0287073    77376.731    73865.836    73861.491    84402.867   -6.3483343    78.534511   -26.235758    170.00837    48.265061    334.63979 
   20400    329.58823  0.042602357   -5.0714778   -5.0288754    77193.874     73669.18    73752.871    84159.571    194.82609    73.930534   -34.432713    170.00837    48.265061     334.7041 
   20500    330.18596  0.042679619   -5.0717224   -5.0290428    76802.802    73213.085     73478.12      83717.2    120.10044    103.52797   -18.232416    170.00837    48.265061    334.76842 
   20600    330.96548  0.042780379     -5.07199   -5.0292096    76643.857    73046.302    73386.992    83498.276    71.884491    19.028089    21.509659    170.00837    48.265061    334.83274 
   20700    330.40012    0.0427073    -5.072083   -5.0293757    76402.334    72764.848    73150.632    83291.523    172.62815    69.817688   -129.86721    170.00837    48.265061    334.89705 
   20800    331.03411   0.04278925   -5.0723307   -5.0295414    76059.005    72404.135    72811.546    82961.335    149.07728    18.136276   -59.455845    170.00837    48.265061    334.96137 
   20900    330.85411  0.042765983   -5.0724727   -5.0297067    75862.735    72228.979    72524.847    82834.378    98.147392   -39.796978   -78.302129    170.00837    48.265061    335.02569 
   21000    331.06426  0.042793146   -5.0726643   -5.0298712    75574.216    72226.378    72141.597    82354.672    216.84543   -77.000993   -50.911952    170.00837    48.265061       335.09 
   21100     330.9176   0.04277419   -5.0728092    -5.030035    75400.743    71977.832    72025.143    82199.252    146.23706   -85.993135   -123.85825    170.00837    48.265061    335.15432 
   21200    331.39287  0.042835622   -5.0730338   -5.0301982    75160.985    71687.907    71884.926    81910.122    118.19726    2.1923698    4.7761662    170.00837    48.265061    335.21864 
   21300    330.06075  0.042663433   -5.0730244    -5.030361    74870.319    71480.037    71475.443    81655.477    190.96384   -162.88738   -17.875815    170.00837    48.265061    335.28295 
   21400     330.2156  0.042683449   -5.0732067   -5.0305232    74609.145    71091.525    71451.201     81284.71    109.92637    68.341978    -42.20184    170.00837    48.265061    335.34727 
   21500    330.37887  0.042704554   -5.0733893   -5.0306848    74336.889    70944.811    71112.474    80953.382    118.82965    17.906455   -90.891862    170.00837    48.265061    335.41159 
   21600     330.6044  0.042733705   -5.0735796   -5.0308458    74124.204    70607.577    70897.096    80867.939    250.05083    117.69675    2.3678791    170.00837    48.265061     335.4759 
   21700    330.17161  0.042677764    -5.073684   -5.0310062     73887.36    70391.663    70827.574    80442.842    135.32371   -100.45928   -164.22889    170.00837    48.265061    335.54022 
   21800    330.62572  0.042736461   -5.0739027   -5.0311663     73609.78    70292.334    70485.822    80051.185    96.858458   -47.052165   -73.713593    170.00837    48.265061    335.60454 
   21900    330.29292  0.042693444   -5.0740189   -5.0313254    73403.966    70052.071    70253.263    79906.564     193.6862    -97.41855    25.422945    170.00837    48.265061    335.66885 
   22000    329.54225  0.042596413   -5.0740802   -5.0314838    73069.029    69743.651    70019.506    79443.929    130.55331   -79.876801    49.613556    170.00837    48.265061    335.73317 
   22100    329.87926  0.042639975   -5.0742819   -5.0316419    72842.394    69495.202    69772.341     79259.64    243.17696   -8.1898933   -93.370299    170.00837    48.265061    335.79749 
   22200    329.97467  0.042652307   -5.0744518   -5.0317995    72665.312    69305.107    69640.704    79050.125    161.55596   -8.0748332   -75.581559    170.00837    48.265061     335.8618 
   22300    329.87319  0.042639189   -5.0745957   -5.0319566    72344.077    69074.361    69249.207    78708.664    143.28512    31.764531   -21.682459    170.00837    48.265061    335.92612 
   22400    330.04399  0.042661267   -5.0747742   -5.0321129    71994.835    68571.794    69006.865    78405.845    82.454537    5.1963548   -38.683525    170.00837    48.265061    335.99044 
   22500    330.77367  0.042755585   -5.0750243   -5.0322688    71819.633    68510.531    68785.848    78162.521    112.73704    40.331738   -41.090681    170.00837    48.265061    336.05475 
   22600    330.52582  0.042723548   -5.0751474   -5.0324238    71571.367    68406.555    68570.878    77736.667    176.36833   -112.67673   -119.92551    170.00837    48.265061    336.11907 
   22700    330.34904  0.042700698   -5.0752788   -5.0325781    71367.424    68186.935     68368.29    77547.045    123.64286   -50.878163    24.496637    170.00837    48.265061    336.18339 
   22800    330.72505    0.0427493   -5.0754812   -5.0327319    71081.841    67871.887    68188.115     77185.52    220.81963   -93.554074    76.380292    170.00837    48.265061     336.2477 
   22900     329.8822  0.042640354   -5.0755254   -5.0328851    70825.554    67664.844    67807.654    77004.164    127.41494   -7.6354512   -15.085794    170.00837    48.265061    336.31202 
   23000    330.36674  0.042702986   -5.0757408   -5.0330378    70504.373    67402.479    67701.769    76408.871    30.868626   -76.545062    112.98533    170.00837    48.265061    336.37634 
   23100    330.09022  0.042667243   -5.0758569   -5.0331897    70337.538    67163.184    67362.539     76486.89      68.1853    12.397888    1.8804221    170.00837    48.265061    336.44065 
   23200    329.92609  0.042646028   -5.0759873   -5.0333413    70079.115    66911.473    67233.736    76092.137    180.95217    74.855391    214.72445    170.00837    48.265061    336.50497 
   23300    330.06976  0.042664598    -5.076157   -5.0334924     69892.38    66784.053    66961.053    75932.034    193.94423   -60.299084   -190.78192    170.00837    48.265061    336.56929 
   23400    329.54036  0.042596169   -5.0762387   -5.0336425    69524.053    66439.266    66767.286    75365.608     162.4876   -16.509495   -27.119576    170.00837    48.265061     336.6336 
   23500    329.70779   0.04261781   -5.0764102   -5.0337924    69325.796    66377.764    66413.321    75186.302    150.71638    83.142372   -9.4540128    170.00837    48.265061    336.69792 
   23600    329.82025  0.042632347   -5.0765738   -5.0339414    69049.383    66113.105    66141.169    74893.873    140.51357    18.298625    17.050299    170.00837    48.265061    336.76224 
   23700    329.94442  0.042648397   -5.0767384     -5.03409    68820.466    65771.549     65996.58    74693.269    47.782828   -21.958582    139.16186    170.00837    48.265061    336.82655 
   23800    330.38954  0.042705933   -5.0769439   -5.0342379    68582.287    65443.895    65949.255    74353.712    21.451299    36.231047   -86.481092    170.00837    48.265061    336.89087 
   23900    328.65477  0.042481698   -5.0768666   -5.0343849    68367.664    65416.619    65605.663     74080.71    125.53061    -110.0874    25.581954    170.00837    48.265061    336.95519 
   24000    330.54644  0.042726213   -5.0772583   -5.0345321    68083.503    65097.342    65175.999    73977.167    136.18271    74.441216   -104.83244    170.00837    48.265061     337.0195 
   24100    329.56621   0.04259951    -5.077278   -5.0346785    67842.006    64767.689    65251.475    73506.854    170.50419     43.41684    2.6035113    170.00837    48.265061    337.08382 
   24200    330.03238  0.042659766   -5.0774842   -5.0348244    67580.027    64573.192    64855.434    73311.454    234.25936    15.581029   -88.399731    170.00837    48.265061    337.14814 
   24300    329.04036  0.042531538    -5.077501   -5.0349694    67349.181    64409.903    64599.263    73038.378    3.0285737   -95.255437   -36.184965    170.00837    48.265061    337.21245 
   24400    329.99345  0.042654735   -5.0777689   -5.0351142    67132.232     64101.41     64543.76    72751.527    240.67437   -64.371818    -118.5718    170.00837    48.265061    337.27677 
   24500    329.75734  0.042624215   -5.0778827   -5.0352585    66870.738    63886.423    64224.353    72501.438    95.447352    -19.47565   -24.271543    170.00837    48.265061    337.34109 
   24600    328.54268  0.042467209   -5.0778689   -5.0354017    66596.398    63641.701    64076.876    72070.618    144.67253    28.467605   -40.858238    170.00837    48.265061     337.4054 
   24700    329.21263  0.042553806   -5.0780985   -5.0355447    66438.554    63433.037    63815.763    72066.862    64.852395   -43.240862   -30.125947    170.00837    48.265061    337.46972 
   24800    329.37898  0.042575309   -5.0782623    -5.035687    66155.336    63332.122    63550.132    71583.753    275.39395    25.381976   -24.208494    170.00837    48.265061    337.53404 
   24900     329.5214  0.042593718   -5.0784225   -5.0358288    65879.279    63030.923    63152.208    71454.706    137.52517    59.691746   0.64530235    170.00837    48.265061    337.59835 
   25000    329.24754  0.042558319   -5.0785284   -5.0359701    65612.955    62788.969    63061.322    70988.574    139.51625    125.49285   -114.45011    170.00837    48.265061    337.66267 
   25100    329.20587  0.042552932   -5.0786635   -5.0361105    65396.561    62526.299    62936.026    70727.358    124.72093     19.60197   -80.479489    170.00837    48.265061    337.72699 
   25200    330.39715  0.042706916   -5.0789575   -5.0362505    65132.909    62207.742    62585.126    70605.859    79.101508   -24.162116   -114.45609    170.00837    48.265061     337.7913 
   25300    328.42707  0.042452266   -5.0788421   -5.0363898    64911.302    62179.826    62307.714    70246.366    258.30576   -16.012745   -103.62939    170.00837    48.265061    337.85562 
   25400    330.14563  0.042674405   -5.0792034   -5.0365289    64688.839    61783.252    62316.958    69966.306    242.99657    5.0432377    26.487515    170.00837    48.265061    337.91994 
   25500    329.07564  0.042536099   -5.0792032   -5.0366671    64380.747    61576.536    61889.029    69676.676    149.08931    118.23229   -91.091327    170.00837    48.265061    337.98425 
   25600    330.05861  0.042663157   -5.0794682    -5.036805     64067.91    61434.635    61482.412    69286.682    268.29128    75.534577   -13.996304    170.00837    48.265061    338.04857 
   25700    329.20137   0.04255235   -5.0794943    -5.036942    63920.561    61228.773    61324.886    69208.023    151.91791    39.256375   -184.35387    170.00837    48.265061    338.11289 
   25800    329.23259  0.042556387   -5.0796349   -5.0370785    63708.844    60999.516    61150.537    68976.479    162.46964   -63.785445   -28.260422    170.00837    48.265061    338.17721 
   25900    329.84596   0.04263567   -5.0798506   -5.0372149    63417.699    60665.712    61045.687    68541.697     82.70996   -56.062599     -143.707    170.00837    48.265061    338.24152 
   26000    329.48235  0.042588671   -5.0799391   -5.0373504      63189.3    60437.206    60825.261    68305.434    80.750877   -10.059057   -64.313665    170.00837    48.265061    338.30584 
   26100    329.80773  0.042630729   -5.0801162   -5.0374854    62954.601    60306.564    60472.697    68084.543    151.01935   -28.778777    -106.6542    170.00837    48.265061    338.37016 
   26200    328.03847  0.042402036   -5.0800217   -5.0376196    62704.634    60053.298    60264.512    67796.092      207.612    3.4732188    -31.64508    170.00837    48.265061    338.43447 
   26300    329.27551  0.042561934   -5.0803155   -5.0377536    62450.413    59821.192    60041.715    67488.332    205.61878    26.482129   -210.49399    170.00837    48.265061    338.49879 
   26400    329.72401  0.042619907   -5.0805068   -5.0378869    62254.944    59633.804    59927.209     67203.82     117.7788    177.56685   -102.57614    170.00837    48.265061    338.56311 
   26500     329.0351  0.042530859   -5.0805503   -5.0380195    62021.337    59410.842    59726.428    66926.742    186.78756    5.0357393   -86.088379    170.00837    48.265061    338.62742 
   26600    329.14761  0.042545402    -5.080697   -5.0381516    61742.311    59285.277    59294.954    66646.701    190.50399    16.629813   -83.762547    170.00837    48.265061    338.69174 
   26700     329.0557  0.042533521   -5.0808167   -5.0382832    61537.472    59016.683    59169.328    66426.406    216.85071   -94.122287    -10.95977    170.00837    48.265061    338.75606 
   26800    328.69894  0.042487407   -5.0809017   -5.0384143    61241.027    58717.726    58944.749    66060.607    176.19206    11.545675   -92.664238    170.00837    48.265061    338.82037 
   26900    329.19796  0.042551909   -5.0810964   -5.0385445    61023.982    58430.236    58906.289    65735.422    126.79106    129.37881   -9.3268622    170.00837    48.265061    338.88469 
   27000    329.11509  0.042541199   -5.0812154   -5.0386742    60743.743    58308.675    58574.732    65347.821    53.289564    63.989428    9.7847458    170.00837    48.265061    338.94901 
   27100    328.67979  0.042484932   -5.0812884   -5.0388034    60544.522    57942.932    58285.833    65404.802    140.03178    9.8513447     2.692316    170.00837    48.265061    339.01332 
   27200    329.90757  0.042643634    -5.081576   -5.0389324    60266.166    57868.391    58052.711    64877.397    232.67832    41.621352   -2.2539108    170.00837    48.265061    339.07764 
   27300     329.1099  0.042540527   -5.0816008   -5.0390603    60100.842    57704.984    57883.999    64713.545    240.06759    19.761002   -33.037301    170.00837    48.265061    339.14196 
   27400    329.40602  0.042578804   -5.0817669   -5.0391881    59865.381    57383.482    57643.998    64568.663    225.12124    77.501207    6.2151176    170.00837    48.265061    339.20627 
   27500    328.33632  0.042440535   -5.0817555   -5.0393149    59546.889    57029.722     57457.53    64153.415    103.63147    23.097929   -25.282411    170.00837    48.265061    339.27059 
   27600    328.79107  0.042499315   -5.0819407   -5.0394414    59347.167    57001.876    57200.501    63839.125    183.98369    120.49778   -50.197992    170.00837    48.265061    339.33491 
   27700    328.72701  0.042491036   -5.0820583   -5.0395673    59123.024    56689.434    56877.459    63802.178    175.44438    192.47416   -32.770521    170.00837    48.265061    339.39922 
   27800    328.48732  0.042460053   -5.0821527   -5.0396926    58847.941    56577.402    56682.524    63283.896     173.5609    171.11551   -65.249179    170.00837    48.265061    339.46354 
   27900    328.46791  0.042457544    -5.082275   -5.0398175    58602.236     56312.78    56419.687    63074.243     157.9094    88.356222   -17.723297    170.00837    48.265061    339.52786 
   28000    329.92613  0.042646032   -5.0825879   -5.0399419    58373.838    56104.471    56211.158    62805.885    82.972865    69.583193    15.637875    170.00837    48.265061    339.59217 
   28100    328.37128  0.042445054   -5.0825104   -5.0400653    58139.174    55948.392    55954.208    62514.922    108.74428   -27.997004   -67.313588    170.00837    48.265061    339.65649 
   28200    329.26984  0.042561202   -5.0827498   -5.0401886    57879.858     55578.32    55889.433     62171.82    127.81569   -130.19225   -42.377305    170.00837    48.265061    339.72081 
   28300    328.74879  0.042493851   -5.0828047   -5.0403108     57666.07    55318.307    55519.051    62160.851    169.18733    127.72015   -109.84304    170.00837    48.265061    339.78512 
   28400    328.06832  0.042405894    -5.082839   -5.0404331    57409.272    55191.736    55320.312    61715.769    135.00707   -31.859254    30.853024    170.00837    48.265061    339.84944 
   28500    328.71554  0.042489553   -5.0830441   -5.0405545    57193.422    54853.889    55175.547    61550.831    199.34739    32.349991    52.433453    170.00837    48.265061    339.91376 
   28600    328.24085  0.042428194   -5.0831036   -5.0406754    57005.005    54726.237    55022.425    61266.353    135.03993   -46.413629    14.303204    170.00837    48.265061    339.97807 
   28700    328.92238  0.042516289   -5.0833121   -5.0407958    56721.242    54544.756    54640.987    60977.984   -35.260583    17.715268    76.245571    170.00837    48.265061    340.04239 
   28800    329.51173  0.042592467   -5.0835082   -5.0409157    56474.848    54403.386    54428.668     60592.49    194.16861   -155.12798   -95.134986    170.00837    48.265061    340.10671 
   28900    328.58199   0.04247229   -5.0835072   -5.0410349    56291.218    54069.999    54325.539    60478.114    128.55385   -155.70669   -63.449684    170.00837    48.265061    340.17102 
   29000    328.72013  0.042490146   -5.0836439   -5.0411537    56057.899    53795.886    54183.948    60193.862    64.912186    35.355234   -79.050951    170.00837    48.265061    340.23534 
   29100    328.78707  0.042498799   -5.0837709   -5.0412721    55689.892    53427.482    53820.654    59821.541    177.58038    50.725721   -93.114081    170.00837    48.265061    340.29966 
   29200     327.6064  0.042346186   -5.0837359   -5.0413897    55540.574    53336.814    53707.525    59577.384    65.696182   -73.135761   -112.42068    170.00837    48.265061    340.36397 
   29300    329.22559  0.042555481   -5.0840623   -5.0415068    55258.382    53116.509     53387.96    59270.676    62.142985   -113.03183   -13.209529    170.00837    48.265061    340.42829 
   29400    327.98985   0.04239575   -5.0840187    -5.041623    55100.652    52910.163    53355.768    59036.026    210.81697    15.238214   -27.638311    170.00837    48.265061    340.49261 
   29500    328.95437  0.042520424   -5.0842596   -5.0417392    54799.547    52641.345    52858.934    58898.361     146.0446   -60.940909   -118.23435    170.00837    48.265061    340.55692 
   29600    328.63059  0.042478572   -5.0843329   -5.0418543    54551.034    52492.939    52778.229    58381.932    192.49481   -18.272105   -28.430478    170.00837    48.265061    340.62124 
   29700    327.87467  0.042380863   -5.0843499    -5.041969    54319.634    52190.863    52564.912    58203.127    219.07967   -136.93049   -112.17673    170.00837    48.265061    340.68556 
   29800    328.19385  0.042422119   -5.0845056   -5.0420835    54110.987    52025.716    52257.298    58049.947    77.574511   -31.576283   -79.339795    170.00837    48.265061    340.74987 
   29900    328.44465  0.042454537   -5.0846517   -5.0421972    53913.839    51994.526    52216.824    57530.168     124.7244   -83.164207    69.617877    170.00837    48.265061    340.81419 
   30000    327.76628  0.042366851   -5.0846769   -5.0423101    53680.005     51612.63    51963.707    57463.679    148.78635   -45.746707   -15.838469    170.00837    48.265061    340.87851 
   30100    328.78064  0.042497968   -5.0849208   -5.0424228    53410.552    51413.966    51722.268    57095.421    150.15613   -28.714828    31.108477    170.00837    48.265061    340.94282 
   30200    328.25746  0.042430342    -5.084965   -5.0425347    53192.496    51161.662    51563.666    56852.161    111.36761    6.0833593    -169.7886    170.00837    48.265061    341.00714 
   30300    328.17283  0.042419402   -5.0850654    -5.042646    52983.624    51068.774    51333.416    56548.683    178.83961   -95.016805    57.268932    170.00837    48.265061    341.07146 
   30400    328.86852  0.042509326   -5.0852663    -5.042757    52726.126    50648.429     51191.08    56338.868    125.30788    11.308836   -106.71185    170.00837    48.265061    341.13577 
   30500    328.11418  0.042411821    -5.085279   -5.0428672     52445.68    50578.659    50768.094    55990.285     80.79842    3.7043456    63.527865    170.00837    48.265061    341.20009 
   30600    327.14546  0.042286605   -5.0852635   -5.0429769    52250.277    50299.796    50593.767    55857.268    96.623295   -63.002456   -119.10903    170.00837    48.265061    341.26441 
   30700    327.83264   0.04237543   -5.0854616   -5.0430862    51975.409    50045.717     50424.55    55455.959    75.093948    59.155176    56.685073    170.00837    48.265061    341.32872 
   30800    328.89203  0.042512366   -5.0857073   -5.0431949    51800.849    49884.752    50251.952    55265.844    78.885325   -109.31972   -230.90483    170.00837    48.265061    341.39304 
   30900    329.19404  0.042551404   -5.0858544    -5.043303    51489.507    49485.063    50083.531    54899.927    268.45102   -112.05286   -16.628994    170.00837    48.265061    341.45736 
   31000    328.17566  0.042419768   -5.0858302   -5.0434105    51320.209    49388.557    49885.551    54686.519    110.55196   -135.52013   -111.20616    170.00837    48.265061    341.52167 
   31100    327.82538  0.042374491   -5.0858918   -5.0435173    51136.649    49213.158    49743.548     54453.24    55.025509   -75.037577    -64.12466    170.00837    48.265061    341.58599 
   31200    328.38155  0.042446382   -5.0860703   -5.0436239    50764.513    48815.068    49346.775    54131.696    141.80895    38.863256   -41.233884    170.00837    48.265061    341.65031 
   31300    328.70083  0.042487652   -5.0862175   -5.0437298    50600.957    48777.557    49187.035    53838.279    43.929432   -100.14538   -18.311785    170.00837    48.265061    341.71462 
   31400     327.7573  0.042365692   -5.0862009   -5.0438352    50419.277    48622.516    48853.774     53781.54    198.91752   -29.340793   -126.07324    170.00837    48.265061    341.77894 
   31500    328.26909  0.042431845   -5.0863719   -5.0439401    50117.562    48274.265     48703.89    53374.531    193.43439   -9.0863828   -39.965241    170.00837    48.265061    341.84326 
   31600    328.32061  0.042438504    -5.086483   -5.0440445    49941.075    48160.246    48406.605    53256.375    256.56469     24.88938   -86.044748    170.00837    48.265061    341.90757 
   31700    328.59945  0.042474547   -5.0866231   -5.0441485    49718.547    47819.973    48395.898    52939.771    125.35237    29.859744   0.47549655    170.00837    48.265061    341.97189 
   31800    328.30256  0.042436172   -5.0866878   -5.0442517    49481.292    47777.813    48089.456    52576.607     59.41752   -29.855066   -22.018345    170.00837    48.265061    342.03621 
   31900    328.89516   0.04251277   -5.0868673   -5.0443545    49240.335    47416.655    47828.572    52475.779    93.531437    97.466805    7.0186265    170.00837    48.265061    342.10052 
   32000    328.24511  0.042428745   -5.0868855   -5.0444568      49012.5    47286.503    47720.287    52030.708    186.78682    1.0759859   -70.100242    170.00837    48.265061    342.16484 
   32100    327.62663  0.042348801   -5.0869074   -5.0445586    48860.619    47093.614    47552.771    51935.473    133.12403    9.5238027   -40.767415    170.00837    48.265061    342.22916 
   32200     328.1202    0.0424126   -5.0870725   -5.0446599    48551.786    46741.905    47363.948    51549.506    214.78091    52.389232   -74.353117    170.00837    48.265061    342.29347 
   32300    328.12451  0.042413157   -5.0871735   -5.0447604    48355.428    46641.255    47011.447    51413.583    110.54533    32.398184   -116.59813    170.00837    48.265061    342.35779 
   32400    327.60202   0.04234562   -5.0872063   -5.0448606    48095.732    46244.389    46882.214    51160.593    309.46639    -67.71644    28.096671    170.00837    48.265061    342.42211 
   32500    328.26648  0.042431508   -5.0873918   -5.0449603    47868.552    46095.022    46612.732    50897.902    266.25509   -154.64165   -16.135053    170.00837    48.265061    342.48642 
   32600     328.2312  0.042426948   -5.0874864   -5.0450594    47525.834    45872.942    46384.814    50319.747    131.20975   -42.978924   -71.126604    170.00837    48.265061    342.55074 
   32700    328.04065  0.042402317   -5.0875599   -5.0451576    47412.393    45864.022    46067.007    50306.151    189.11648   -71.641844   -106.11203    170.00837    48.265061    342.61506 
   32800    327.40352  0.042319962   -5.0875754   -5.0452554    47076.233    45467.871    45757.135    50003.694    39.535863    100.69952   -58.322052    170.00837    48.265061    342.67937 
   32900    327.05309  0.042274666   -5.0876275   -5.0453529    46914.135    45422.437    45584.612    49735.356    185.32601    101.24063   -62.516056    170.00837    48.265061    342.74369 
   33000    328.03376  0.042401426   -5.0878513   -5.0454499    46684.337    45064.918    45429.721    49558.371    127.02968   -7.5761361   -115.01994    170.00837    48.265061    342.80801 
   33100    327.56881  0.042341328   -5.0878876   -5.0455463    46495.302    44817.793    45328.764    49339.349    169.69338   -80.544378   -102.59677    170.00837    48.265061    342.87232 
   33200    327.84896  0.042377539   -5.0880198   -5.0456423    46286.082    44701.671     45008.09    49148.485    164.60507   -41.960701   -69.620537    170.00837    48.265061    342.93664 
   33300    327.70991  0.042359566   -5.0880974   -5.0457378    46073.122    44509.055    44937.358    48772.954    92.481823     67.82015   -81.914939    170.00837    48.265061    343.00096 
   33400    327.04603  0.042273753   -5.0881061   -5.0458324    45825.437    44298.946    44721.514     48455.85    53.496675    39.421593    12.249839    170.00837    48.265061    343.06527 
   33500    327.49924  0.042332335    -5.088259   -5.0459266    45536.387    44106.288    44370.915    48131.957    239.79934   -28.661817   -11.246666    170.00837    48.265061    343.12959 
   33600    327.58304  0.042343167   -5.0883634   -5.0460203    45371.599    43872.609    44193.579     48048.61    154.73424   -28.839412   -95.600494    170.00837    48.265061    343.19391 
   33700    327.62866  0.042349063   -5.0884628   -5.0461138    45146.176    43751.981    44056.729    47629.817    176.97459    12.685985   -22.702676    170.00837    48.265061    343.25822 
   33800    327.29856  0.042306394   -5.0885126   -5.0462062    44884.808    43593.637    43763.018     47297.77    202.61638    57.191519    1.4697174    170.00837    48.265061    343.32254 
   33900    327.94471  0.042389916   -5.0886881   -5.0462982    44677.259    43340.233    43549.023    47142.522    137.11752   -13.104352   -10.598848    170.00837    48.265061    343.38686 
   34000    327.33877  0.042311592   -5.0887011   -5.0463896    44432.657    43169.342    43289.231    46839.399    185.88126   -79.354967   -31.978678    170.00837    48.265061    343.45117 
   34100    327.51524  0.042334402    -5.088815   -5.0464806     44303.86    42854.544    43243.998    46813.038   -3.8936635   -81.331411    20.901361    170.00837    48.265061    343.51549 
   34200    326.74846   0.04223529   -5.0888065   -5.0465712    43927.853    42585.435    42877.008    46321.115    231.90486     103.6191   -106.85189    170.00837    48.265061    343.57981 
   34300    326.95484  0.042261966   -5.0889228   -5.0466608    43789.183    42487.131    42697.068     46183.35    92.816772    25.706027   -161.99248    170.00837    48.265061    343.64412 
   34400    327.83879  0.042376225   -5.0891267   -5.0467505    43586.793    42303.172    42564.912    45892.296    159.51606    26.822958   -40.746997    170.00837    48.265061    343.70844 
   34500    327.60221  0.042345644   -5.0891849   -5.0468392    43367.941    42160.269    42366.897    45576.657    125.57591   -9.7808309    4.4493009    170.00837    48.265061    343.77276 
   34600    328.55762   0.04246914   -5.0893968   -5.0469277    43109.464      41820.5     42046.06    45461.833    81.031175    30.300689    34.343957    170.00837    48.265061    343.83707 
   34700     326.4253  0.042193518   -5.0892088   -5.0470153    42880.673     41629.08    41998.463    45014.475    196.84757    90.060872   -35.699815    170.00837    48.265061    343.90139 
   34800    327.10251  0.042281054   -5.0893835   -5.0471025     42679.15    41389.818    41769.346    44878.285     249.0634   -37.681592    -56.54442    170.00837    48.265061    343.96571 
   34900     327.1978  0.042293371   -5.0894828   -5.0471894    42402.083    41107.014    41506.283    44592.953    234.45425    105.16887   -88.620797    170.00837    48.265061    344.03002 
   35000    326.73494  0.042233541    -5.089509   -5.0472754    42230.846    41046.838    41355.081     44290.62    201.15916    81.581862   -75.421226    170.00837    48.265061    344.09434 
   35100    327.40544   0.04232021   -5.0896815   -5.0473613    41978.546      40763.5    41135.747    44036.392    157.65601   -71.174591    49.091656    170.00837    48.265061    344.15866 
   35200     326.9928  0.042266873   -5.0897132   -5.0474464    41812.975    40567.015    40805.178    44066.732    186.32566    11.136525    39.490307    170.00837    48.265061    344.22297 
   35300    326.80262   0.04224229   -5.0897733    -5.047531    41504.705    40416.889    40656.346    43440.879    143.07817    89.356609   -10.288775    170.00837    48.265061    344.28729 
   35400    327.39909  0.042319389   -5.0899344    -5.047615    41250.036    40115.479    40467.616    43167.012    117.28008  -0.11316771   -124.29197    170.00837    48.265061    344.35161 
   35500    326.96881  0.042263771   -5.0899624   -5.0476986    41023.497    39911.294    40221.298      42937.9    102.50481    41.092102   -13.911591    170.00837    48.265061    344.41592 
   35600    327.23098   0.04229766   -5.0900793   -5.0477817    40826.467     39656.35    40083.265    42739.786    209.28165     12.48403   -35.234642    170.00837    48.265061    344.48024 
   35700     326.0812   0.04214904   -5.0900129   -5.0478639    40603.835    39597.927    39736.493    42477.086    171.58056   -20.288265    29.775524    170.00837    48.265061    344.54456 
   35800    326.91928  0.042257369   -5.0902033   -5.0479459    40438.817    39438.117    39773.337    42104.997    55.949803   -26.613574    92.543237    170.00837    48.265061    344.60887 
   35900     327.2933  0.042305715    -5.090333   -5.0480273    40163.582     39039.37    39514.442    41936.935    184.84447   -82.803455    8.5309746    170.00837    48.265061    344.67319 
   36000    327.32485  0.042309793   -5.0904178    -5.048108    39926.013    38981.535    39240.919    41555.585    123.92724     57.06054    16.551442    170.00837    48.265061    344.73751 
   36100    326.72097  0.042231736   -5.0904197   -5.0481879    39708.018    38724.141    38983.919    41415.993    55.474637    84.545424    28.121574    170.00837    48.265061    344.80183 
   36200     326.8416  0.042247329   -5.0905151   -5.0482678    39558.157    38677.141    38804.627    41192.704    123.29194   -50.338017     60.41749    170.00837    48.265061    344.86614 
   36300    326.42781  0.042193843   -5.0905408    -5.048347     39358.54    38360.142    38625.522    41089.957     142.2658    74.973416    42.980717    170.00837    48.265061    344.93046 
   36400    326.17233  0.042160819   -5.0905867   -5.0484259    39141.041    38132.913     38562.47     40727.74     76.24107   -41.527923    26.116501    170.00837    48.265061    344.99478 
   36500    326.02248   0.04214145   -5.0906455   -5.0485041    38924.746    37908.995    38312.409    40552.834    50.966638   -74.094339 -0.092187544    170.00837    48.265061    345.05909 
   36600    325.77771  0.042109811    -5.090692   -5.0485822      38662.1     37638.02    37994.914    40353.365    132.15002   -9.2488213    6.7080949    170.00837    48.265061    345.12341 
   36700    326.12567  0.042154788   -5.0908144   -5.0486596    38434.992    37498.703    37810.372    39995.901    59.351244    28.995046    109.66915    170.00837    48.265061    345.18773 
   36800     326.7887  0.042240491   -5.0909771   -5.0487366    38179.647    37329.838    37487.524     39721.58    57.143099    121.50204   -59.694455    170.00837    48.265061    345.25204 
   36900    326.43814  0.042195178    -5.091008   -5.0488128    37944.982    37252.909    37233.457     39348.58    130.49069    24.631881    37.614448    170.00837    48.265061    345.31636 
   37000    326.97247  0.042264245   -5.0911526   -5.0488883    37760.075     36943.61    37163.073    39173.542    180.06387    143.41052    89.598121    170.00837    48.265061    345.38068 
   37100     327.2906  0.042305366   -5.0912689   -5.0489635    37579.033    36748.081    37084.853    38904.166    168.93767    50.569016    94.349017    170.00837    48.265061    345.44499 
   37200    326.28709  0.042175653   -5.0912138   -5.0490381    37325.601    36506.013     36868.26    38602.531    152.22184   -77.228282    85.198019    170.00837    48.265061    345.50931 
   37300    326.66351  0.042224309   -5.0913367   -5.0491124    37106.754    36279.611    36618.002    38422.648    72.428065   -53.645568    56.603001    170.00837    48.265061    345.57363 
   37400     326.9688   0.04226377   -5.0914496   -5.0491858    36867.851    36061.889    36336.934    38204.731    94.477257    34.305687   -39.137151    170.00837    48.265061    345.63794 
   37500    327.14464    0.0422865   -5.0915457   -5.0492592    36690.069    35840.131    36243.393    37986.682    138.22945    94.537889   -46.050334    170.00837    48.265061    345.70226 
   37600    325.92026  0.042128237   -5.0914599   -5.0493317     36528.84    35831.014    35932.844    37822.663    156.09327    26.309422    3.8902907    170.00837    48.265061    345.76658 
   37700    326.24863  0.042170682   -5.0915747    -5.049404     36228.15    35368.532    35762.589     37553.33    237.61718   -2.0969096    87.254139    170.00837    48.265061    345.83089 
   37800    326.89166  0.042253799   -5.0917297   -5.0494759    35960.004    35203.129    35498.165    37178.716    177.81488    65.724926    1.2926332    170.00837    48.265061    345.89521 
   37900    326.47755  0.042200272    -5.091747   -5.0495467    35758.338    35075.929    35319.187    36879.897    161.46467    28.646562    3.7753002    170.00837    48.265061    345.95953 
   38000     326.8519   0.04224866   -5.0918661   -5.0496175    35616.822     34876.36    35189.679    36784.427    152.09515    53.277786    70.773778    170.00837    48.265061    346.02384 
   38100    326.65139  0.042222743   -5.0919102   -5.0496874     35428.46    34759.187    35045.195        36481    140.61008    18.623565     -8.64234    170.00837    48.265061    346.08816 
   38200    326.22119  0.042167135   -5.0919241   -5.0497569    35087.789     34349.64    34748.404    36165.322    161.83062    99.044365    95.552756    170.00837    48.265061    346.15248 
   38300    325.93687  0.042130384   -5.0919563   -5.0498259    34971.843    34295.316    34602.867    36017.346     97.77702   -30.620406   -46.943099    170.00837    48.265061    346.21679 
   38400    326.11027  0.042152798   -5.0920472   -5.0498944    34698.527     34156.92    34242.688    35695.974    118.41753   -36.646717    70.428164    170.00837    48.265061    346.28111 
   38500    325.34459  0.042053826   -5.0920163   -5.0499624    34524.867    33903.602    34165.047    35505.953    155.26473    60.674688     85.66161    170.00837    48.265061    346.34543 
   38600    326.62886  0.042219829   -5.0922502   -5.0500304    34260.645    33653.081    33971.191    35157.663    47.643493    26.541458    44.032357    170.00837    48.265061    346.40974 
   38700    325.66022  0.042094625   -5.0921916    -5.050097    34138.068    33660.182    33731.647    35022.376    155.24156   -71.377655    139.56189    170.00837    48.265061    346.47406 
   38800    325.64011  0.042092025   -5.0922554   -5.0501634    33823.816    33369.712    33504.441    34597.294    183.77397   -105.17337   -62.977888    170.00837    48.265061    346.53838 
   38900    326.13983  0.042156618   -5.0923859   -5.0502293    33644.305    33151.681     33358.87    34422.363    128.27173    50.581123    20.631683    170.00837    48.265061    346.60269 
   39000     326.3439  0.042182996   -5.0924778   -5.0502948    33374.409    32848.485    33068.223    34206.519    167.25069    88.572585   -40.120568    170.00837    48.265061    346.66701 
   39100    327.05799  0.042275299   -5.0926352   -5.0503599    33190.059    32612.089    32988.586    33969.503    189.95412    3.3231501   -112.95113    170.00837    48.265061    346.73133 
   39200    326.22496  0.042167622    -5.092592   -5.0504244    33007.642     32522.51    32805.472    33694.945    229.44234   -31.716513    48.964671    170.00837    48.265061    346.79564 
   39300    325.55841  0.042081465   -5.0925697   -5.0504882    32779.692    32247.487    32661.528    33430.063    113.19505   -72.136743   -5.1193156    170.00837    48.265061    346.85996 
   39400    326.52125   0.04220592   -5.0927577   -5.0505518    32505.532    31982.941    32296.752    33236.901   -14.420195   -84.979343   -156.51201    170.00837    48.265061    346.92428 
   39500    326.71987  0.042231594   -5.0928462   -5.0506146    32294.121     31834.91    32141.735    32905.717    101.87687     56.59157    88.202195    170.00837    48.265061    346.98859 
   39600     326.2013  0.042164564   -5.0928415    -5.050677    32122.151    31650.793     31996.05    32719.608    43.181413    -106.5287    31.154566    170.00837    48.265061    347.05291 
   39700    326.73013  0.042232921   -5.0929719   -5.0507389     31895.89    31453.747    31748.426    32485.498    112.25822   -41.542288   -14.916476    170.00837    48.265061    347.11723 
   39800    325.56253  0.042081997   -5.0928823   -5.0508003    31717.636    31221.995    31630.152    32300.762    157.05362     -37.0078    46.850656    170.00837    48.265061    347.18154 
   39900    325.97923  0.042135859   -5.0929971   -5.0508613    31455.673    31061.572    31454.422    31851.024    91.492504    36.339445   -37.208816    170.00837    48.265061    347.24586 
   40000    325.66801  0.042095632    -5.093017   -5.0509214    31226.055    31000.479    31079.243    31598.443    226.35071    68.251003    37.498176    170.00837    48.265061    347.31018 
   40100    325.86493  0.042121085   -5.0931022   -5.0509811    31037.823    30638.061    31052.119    31423.291    188.69974    30.249492    6.9088288    170.00837    48.265061    347.37449 
   40200    325.79682  0.042112281   -5.0931526   -5.0510403     30773.09    30553.194    30627.737    31138.339    145.14051    89.632931   -17.960155    170.00837    48.265061    347.43881 
   40300    325.88245   0.04212335   -5.0932227   -5.0510993    30566.124    30155.235    30523.805    31019.333    118.59217    13.683765    4.4162673    170.00837    48.265061    347.50313 
   40400    325.21257  0.042036761   -5.0931942   -5.0511574    30383.271    30088.413    30428.645    30632.756    268.83669   -40.771475    21.894139    170.00837    48.265061    347.56744 
   40500    325.42423   0.04206412   -5.0932796   -5.0512155    30257.371    29924.913    30166.439    30680.762    172.76126    110.27362    38.350079    170.00837    48.265061    347.63176 
   40600    326.06527  0.042146981   -5.0934201   -5.0512731    29957.446     29722.67    29935.878     30213.79    227.40637    6.3780096   -19.729928    170.00837    48.265061    347.69608 
   40700    326.36976  0.042186339   -5.0935165   -5.0513301    29775.094    29492.266    29745.718    30087.298    205.67377     127.3237    50.092632    170.00837    48.265061    347.76039 
   40800    325.48731  0.042072274   -5.0934585   -5.0513862    29575.765    29467.544    29622.062    29637.688    174.76699    48.279957    68.565209    170.00837    48.265061    347.82471 
   40900    325.99015   0.04213727   -5.0935794   -5.0514421     29395.21    29134.653    29480.512    29570.466    126.96624    60.957605    25.982354    170.00837    48.265061    347.88903 
   41000    325.81586  0.042114742   -5.0936122   -5.0514974    29109.006    28787.462    29241.543    29298.014    187.70102    104.08988    19.280992    170.00837    48.265061    347.95334 
   41100    325.03102  0.042013294   -5.0935652   -5.0515519    28918.003    28775.396    29087.121    28891.493    109.30645    96.888306    56.062044    170.00837    48.265061    348.01766 
   41200    325.64221  0.042092297   -5.0936986   -5.0516063    28692.225    28578.555    28713.591     28784.53    195.48255    147.32094   -65.912024    170.00837    48.265061    348.08198 
   41300    326.42163  0.042193044   -5.0938532   -5.0516601    28531.911    28376.073    28647.847    28571.813    184.58933    102.04671   -81.995721    170.00837    48.265061    348.14629 
   41400    325.59094  0.042085669   -5.0937991   -5.0517135    28307.848    28204.623    28426.299    28292.623    100.48255    138.10616    -83.26276    170.00837    48.265061    348.21061 
   41500    325.21157  0.042036632   -5.0938029   -5.0517663     28075.42    27987.668    28126.453    28112.138    83.087366   -83.846902   -108.91466    170.00837    48.265061    348.27493 
   41600     325.2665  0.042043732   -5.0938624   -5.0518187    27890.656    27726.661    28072.136    27873.172    50.326228    36.011567   -39.075981    170.00837    48.265061    348.33924 
   41700    325.40203  0.042061251   -5.0939318   -5.0518705    27626.896    27511.478    27855.205    27514.004    64.388612     19.91503   -48.821454    170.00837    48.265061    348.40356 
   41800     325.6868   0.04209806   -5.0940199   -5.0519218    27398.564    27430.593    27623.783    27141.316    67.962561     57.59339    -151.3725    170.00837    48.265061    348.46788 
   41900    326.15156  0.042158135   -5.0941306   -5.0519725      27261.6    27271.329     27484.24    27029.232    202.54981   -3.4651499    76.188167    170.00837    48.265061    348.53219 
   42000    325.39678  0.042060572   -5.0940833   -5.0520227    27067.659    27115.982    27323.984    26763.012    115.84641     34.40459   -25.355823    170.00837    48.265061    348.59651 
   42100    325.13019  0.042026112   -5.0940984   -5.0520723    26875.118     26908.69    27218.209    26498.454    212.34019     61.47754   -44.396379    170.00837    48.265061    348.66083 
   42200    326.04383   0.04214421   -5.0942658   -5.0521216    26577.301    26639.407    26720.662    26371.835    181.73635    44.404808    -23.63163    170.00837    48.265061    348.72514 
   42300    325.85804  0.042120194   -5.0942908   -5.0521706    26361.908    26287.364    26699.768    26098.593    136.36618    66.751455    20.519838    170.00837    48.265061    348.78946 
   42400    324.71785  0.041972814   -5.0941915   -5.0522187    26231.196      26231.9    26571.873    25889.815     168.9883   -11.731975    31.616893    170.00837    48.265061    348.85378 
   42500    325.47905  0.042071206   -5.0943377   -5.0522665    25927.454    26030.167    26164.871    25587.324    162.83237    16.586449   -23.181218    170.00837    48.265061    348.91809 
   42600    324.94539  0.042002226    -5.094316   -5.0523137    25733.864    25893.719    25990.265    25317.608    124.68271    78.943604    11.420118    170.00837    48.265061    348.98241 
   42700    324.11877  0.041895378   -5.0942558   -5.0523604    25598.419     25651.62    26014.804    25128.834    38.007028      117.127    66.782743    170.00837    48.265061    349.04673 
   42800    325.26617  0.042043689   -5.0944506   -5.0524069    25373.903    25419.129    25682.775    25019.805    151.61865    13.251641    4.0636398    170.00837    48.265061    349.11104 
   42900    325.24349  0.042040758   -5.0944934   -5.0524526     25135.12    25316.779     25586.73    24501.851    73.194955     172.2886   -34.857234    170.00837    48.265061    349.17536 
   43000    325.67402  0.042096408   -5.0945942   -5.0524978    24878.334    25059.642    25326.094    24249.267   -4.3327247   -7.2650817    14.612154    170.00837    48.265061    349.23968 
   43100    325.25654  0.042042445   -5.0945849   -5.0525424    24769.872    25016.143    25133.117    24160.357    166.47519    4.8220622   -103.67042    170.00837    48.265061    349.30399 
   43200    324.29397  0.041918024   -5.0945047   -5.0525867    24558.452    24674.691    24961.749    24038.915    82.001462   -53.285454     41.40469    170.00837    48.265061    349.36831 
   43300    325.13848  0.042027185   -5.0946582    -5.052631    24311.969    24458.543    24804.416    23672.949    85.809112   -120.00169    21.886709    170.00837    48.265061    349.43263 
   43400    324.05131  0.041886657   -5.0945608   -5.0526741    24137.731     24348.87    24658.367    23405.956     149.0867     123.9228   0.72176638    170.00837    48.265061    349.49694 
   43500    325.85058   0.04211923   -5.0948364   -5.0527171    23931.034     24216.38    24460.761     23115.96    139.83086    78.034802    -53.66984    170.00837    48.265061    349.56126 
   43600    324.83805  0.041988351   -5.0947477   -5.0527594    23737.365    23975.897     24212.02    23024.178    12.133491   -2.1545342   -116.11634    170.00837    48.265061    349.62558 
   43700    324.93414  0.042000771    -5.094802   -5.0528012    23534.246    23852.008    24063.975    22686.755    106.24768   -35.891228   -65.244865    170.00837    48.265061    349.68989 
   43800    325.39175  0.042059922   -5.0949026   -5.0528427    23228.521    23483.985    23794.095    22407.485    186.86683    80.491401    59.421756    170.00837    48.265061    349.75421 
   43900    325.54234  0.042079387   -5.0949629   -5.0528835    23012.655    23207.576    23536.591    22293.798    100.40855   -64.834081    16.205715    170.00837    48.265061    349.81853 
   44000    324.86797  0.041992219   -5.0949161   -5.0529239    22890.303    23159.879    23548.056    21962.974    111.34127   -24.293207    99.294997    170.00837    48.265061    349.88284 
   44100    324.18506  0.041903946   -5.0948677   -5.0529637    22643.396    22907.936    23228.143    21794.108    23.244127    14.927009   -180.02727    170.00837    48.265061    349.94716 
   44200    324.41254   0.04193335   -5.0949365   -5.0530032    22514.855    22803.606    23120.618    21620.342    182.42688     80.60512   -75.128472    170.00837    48.265061    350.01148 
   44300    323.81199  0.041855723   -5.0948978   -5.0530421    22224.051    22548.276    22946.175    21177.702    125.53021    62.726864    48.910347    170.00837    48.265061    350.07579 
   44400     324.6236  0.041960632   -5.0950412   -5.0530806    22086.015    22243.669    22821.053    21193.323     49.58598    57.907686   -134.90193    170.00837    48.265061    350.14011 
   44500    324.00442  0.041880596   -5.0949992   -5.0531186    21882.522    22221.249    22593.549    20832.768     149.5516    38.846763   -147.74661    170.00837    48.265061    350.20443 
   44600    325.69364  0.042098944   -5.0952554   -5.0531565     21680.79    22049.272    22303.829    20689.268   -25.969861    122.88587   -119.01081    170.00837    48.265061    350.26874 
   44700    324.99981   0.04200926   -5.0952027   -5.0531934    21458.643    21773.897    22197.442     20404.59    120.22594    25.731477   -99.142991    170.00837    48.265061    350.33306 
   44800    324.75496   0.04197761   -5.0952075   -5.0532299    21218.408     21684.34    21853.692    20117.192    127.19199    52.776983    -13.12002    170.00837    48.265061    350.39738 
   44900    324.18042  0.041903347   -5.0951693    -5.053266    21062.892    21421.896    21825.602    19941.179    40.178328    22.977984    1.6033838    170.00837    48.265061    350.46169 
   45000    323.51815  0.041817742   -5.0951194   -5.0533016    20860.098    21246.807    21593.876    19739.612    106.91893    4.4538755   -6.7663479    170.00837    48.265061    350.52601 
   45100     324.7455  0.041976389   -5.0953134    -5.053337    20646.376    21120.464    21278.207    19540.458    108.94136   -18.474225   -51.056495    170.00837    48.265061    350.59033 
   45200    323.97687  0.041877036   -5.0952489   -5.0533718    20516.209    20921.544    21211.741    19415.343     105.6012     109.4595    44.475858    170.00837    48.265061    350.65464 
   45300    324.06093    0.0418879   -5.0952939    -5.053406    20221.769    20684.182    21049.066    18932.058    86.846648   -10.591081   -68.541321    170.00837    48.265061    350.71896 
   45400    323.86051  0.041861995   -5.0953016   -5.0534396    20093.855     20581.55    20894.356    18805.659    38.643981   -22.184777    8.9127317    170.00837    48.265061    350.78328 
   45500    324.19316  0.041904993   -5.0953778   -5.0534728    19884.349    20404.714    20755.439    18492.893    52.601648   -14.397857   -66.484004    170.00837    48.265061    350.84759 
   45600     323.8994  0.041867022   -5.0953724   -5.0535054    19614.368    20175.577    20502.612    18164.913    56.724353   -69.635473   -7.6223868    170.00837    48.265061    350.91191 
   45700       324.68  0.041967922   -5.0955055   -5.0535376    19327.247    19801.012    20200.276    17980.454    112.22518   -11.453968   0.93907118    170.00837    48.265061    350.97623 
   45800     324.6514  0.041964225   -5.0955336   -5.0535694    19277.858    19858.347    20099.666     17875.56    111.57292    103.45489   -84.615272    170.00837    48.265061    351.04054 
   45900    324.46487  0.041940114   -5.0955408   -5.0536007    19030.428    19544.657    19965.828    17580.801    211.26981    7.7718438   -26.778326    170.00837    48.265061    351.10486 
   46000    325.20488  0.042035768   -5.0956674   -5.0536316    18829.819    19519.113    19639.922    17330.421    125.76028    50.582645   -4.3545559    170.00837    48.265061    351.16918 
   46100    324.07382  0.041889568   -5.0955515   -5.0536619    18656.681    19428.084    19392.124    17149.835  -0.35433572   -33.449334   0.54374555    170.00837    48.265061    351.23349 
   46200    324.12852  0.041896638   -5.0955883   -5.0536916    18407.067    18932.805    19431.546    16856.851    149.25896     30.58235   -51.248087    170.00837    48.265061    351.29781 
   46300    324.34916  0.041925158   -5.0956465   -5.0537213    18298.529      19038.1    19043.226    16814.261    175.25077    4.4869909    43.029937    170.00837    48.265061    351.36213 
   46400    323.71395  0.041843051   -5.0955933   -5.0537502    18028.808    18800.583    19032.569    16253.272    118.09799    59.719408   -61.944436    170.00837    48.265061    351.42645 
   46500    323.47944  0.041812738   -5.0955914   -5.0537786    17928.974    18508.322    18902.661    16375.938   -13.250086    20.756955   -46.018274    170.00837    48.265061    351.49076 
   46600    324.17951  0.041903229     -5.09571   -5.0538068    17577.586    18245.311     18638.48    15848.967    175.13925    31.965736   -109.65087    170.00837    48.265061    351.55508 
   46700    324.20373  0.041906359   -5.0957405   -5.0538342    17406.928     18115.11    18323.656    15782.019     32.15251   -7.7586237   -1.2892167    170.00837    48.265061     351.6194 
   46800    323.94122  0.041872428   -5.0957337   -5.0538612    17206.866    17846.631     18212.22    15561.746    70.161715    30.248743    11.775779    170.00837    48.265061    351.68371 
   46900    323.81387  0.041855966    -5.095744    -5.053888    17134.096    17808.226    18208.351    15385.711      116.403   -44.378706    36.655404    170.00837    48.265061    351.74803 
   47000    324.38427  0.041929696   -5.0958439   -5.0539142    16773.386    17429.734    17921.435    14968.988    215.18279    114.44537    6.9587042    170.00837    48.265061    351.81235 
   47100    323.81705  0.041856377   -5.0957962   -5.0539398    16627.609    17233.267    17710.685    14938.875    87.458115    31.237449    17.928451    170.00837    48.265061    351.87666 
   47200    324.09479  0.041892277   -5.0958573    -5.053965    16444.413    17265.055    17558.783    14509.402    67.868467   -31.393018    51.669009    170.00837    48.265061    351.94098 
   47300    322.67319  0.041708522   -5.0956981   -5.0539896    16251.739    17071.803    17436.772    14246.642    107.40287   -25.301646   -125.73886    170.00837    48.265061     352.0053 
   47400    323.41451  0.041804345   -5.0958181   -5.0540137    16017.054    16743.838    17329.287    13978.036     61.49532    -43.74209    -24.51647    170.00837    48.265061    352.06961 
   47500    323.30735  0.041790493   -5.0958281   -5.0540376    15900.904    16713.357    17022.884     13966.47    75.458181    -23.97708   -70.153062    170.00837    48.265061    352.13393 
   47600    323.55888  0.041823006   -5.0958838   -5.0540608    15636.946    16499.966    16738.303    13672.568    125.21146   -14.952989    96.114399    170.00837    48.265061    352.19825 
   47700    323.37432   0.04179915   -5.0958828   -5.0540837     15513.65    16356.234    16715.096    13469.619    76.826298    18.146229    13.480668    170.00837    48.265061    352.26256 
   47800    323.69716   0.04184088   -5.0959471   -5.0541063    15292.936    16156.669    16434.751    13287.388    34.265627   -17.565628    1.6657531    170.00837    48.265061    352.32688 
   47900    323.43878  0.041807482   -5.0959357   -5.0541283    15046.775    15834.137    16291.813    13014.375    125.52708    48.575004   -16.911286    170.00837    48.265061     352.3912 
   48000    324.93327  0.042000659   -5.0961506     -5.05415    14814.833    15637.039     16095.62    12711.841    201.60197    66.039849    16.879064    170.00837    48.265061    352.45551 
   48100    324.51801  0.041946983   -5.0961179   -5.0541709      14634.2    15563.526    15817.851    12521.224    207.55964   -9.0062304   -78.151983    170.00837    48.265061    352.51983 
   48200     323.5071  0.041816314   -5.0960078   -5.0541915    14446.955    15328.167    15678.993    12333.705    235.13782    83.911834    34.535238    170.00837    48.265061    352.58415 
   48300    323.65864  0.041835902   -5.0960472   -5.0542113    14284.767    15153.679    15629.267    12071.356    226.35113    80.284882   -63.484691    170.00837    48.265061    352.64846 
   48400    323.50811  0.041816443   -5.0960474    -5.054231    14134.159    15063.572    15420.614    11918.291    23.193338    64.506065   -52.012648    170.00837    48.265061    352.71278 
   48500    322.76066  0.041719829   -5.0959699     -5.05425    13908.844    14838.383    15138.502    11749.646    172.15661    79.636453   -47.819044    170.00837    48.265061     352.7771 
   48600    324.12618  0.041896335   -5.0961651   -5.0542688    13706.822    14715.504    14975.616    11429.347    74.699127    89.808457   -36.021367    170.00837    48.265061    352.84141 
   48700    323.01184  0.041752297   -5.0960392   -5.0542869    13457.953    14442.577    14778.123     11153.16    141.23126   -48.834605   -14.934943    170.00837    48.265061    352.90573 
   48800    322.55949  0.041693826   -5.0959981   -5.0543043    13296.362    14398.359    14582.784    10907.942    69.738337   -31.050314   -24.027017    170.00837    48.265061    352.97005 
   48900    322.41341  0.041674943   -5.0959964   -5.0543215    13165.515    14245.194    14588.888    10662.463    62.883475    32.404663    60.320769    170.00837    48.265061    353.03436 
   49000    323.04695  0.041756835   -5.0960951   -5.0543382    12883.657    14009.273    14309.416    10332.281    105.27236   -66.888867   -45.132269    170.00837    48.265061    353.09868 
   49100    323.01889  0.041753208   -5.0961075   -5.0543543    12671.331    13683.463    14100.891    10229.638     35.89999    13.658761    34.275909    170.00837    48.265061      353.163 
   49200    322.22917  0.041651129   -5.0960209   -5.0543698    12478.523    13492.635    14009.753    9933.1801     52.80689   -19.136187   -40.505317    170.00837    48.265061    353.22731 
   49300    322.86591  0.041733434   -5.0961186   -5.0543851    12366.273    13509.841    13679.407    9909.5697    54.391326    61.425577   -65.508637    170.00837    48.265061    353.29163 
   49400    322.29287  0.041659363   -5.0960593   -5.0543999    12111.743    13335.676    13555.314    9444.2382    33.249347   -44.923533   -11.464669    170.00837    48.265061    353.35595 
   49500    323.70881  0.041842386   -5.0962567   -5.0544143    11914.157    12953.366    13374.814    9414.2916    36.858081   -112.90261   -11.107571    170.00837    48.265061    353.42026 
   49600    322.96994   0.04174688   -5.0961749    -5.054428     11744.55    13000.176    13217.595    9015.8777    71.470332    1.6989281   -55.929683    170.00837    48.265061    353.48458 
   49700    323.00631  0.041751582    -5.096193   -5.0544414    11558.126    12653.596     13037.11    8983.6721    135.77104    5.0597191     29.89586    170.00837    48.265061     353.5489 
   49800    322.69424  0.041711244   -5.0961657   -5.0544544    11394.527     12564.84    12970.601    8648.1402    76.940296    13.121938   -28.936233    170.00837    48.265061    353.61321 
   49900    323.21467  0.041778514   -5.0962456   -5.0544671     11175.97     12370.92    12661.068    8495.9208   -2.9136307    102.76182   -88.095117    170.00837    48.265061    353.67753 
   50000    322.16494  0.041642827    -5.096122   -5.0544792    11053.649    12214.921    12664.856    8281.1715     100.3637    64.299444   -23.738853    170.00837    48.265061    353.74185 
Loop time of 93461.1 on 2 procs for 50000 steps with 160000 atoms

Pair  time (%) = 86952.3 (93.0358)
Neigh time (%) = 4304.75 (4.60592)
Comm  time (%) = 1160.08 (1.24124)
Outpt time (%) = 87.3966 (0.0935112)
Other time (%) = 956.628 (1.02356)

Nlocal:    80000 ave 80024 max 79976 min
Histogram: 1 0 0 0 0 0 0 0 0 1
Nghost:    50463 ave 50497 max 50429 min
Histogram: 1 0 0 0 0 0 0 0 0 1
Neighs:    5.71817e+06 ave 5.72667e+06 max 5.70966e+06 min
Histogram: 1 0 0 0 0 0 0 0 0 1
FullNghs:  1.14363e+07 ave 1.14419e+07 max 1.14307e+07 min
Histogram: 1 0 0 0 0 0 0 0 0 1

Total # of neighbors = 22872655
Ave neighs/atom = 142.954
Neighbor list builds = 561
Dangerous builds = 0
